
     Program PWSCF v.7.3 starts on 29Jan2025 at  1:11:42 

     This program is part of the open-source Quantum ESPRESSO suite
     for quantum simulation of materials; please cite
         "P. Giannozzi et al., J. Phys.:Condens. Matter 21 395502 (2009);
         "P. Giannozzi et al., J. Phys.:Condens. Matter 29 465901 (2017);
         "P. Giannozzi et al., J. Chem. Phys. 152 154105 (2020);
          URL http://www.quantum-espresso.org", 
     in publications or presentations arising from this work. More details at
     http://www.quantum-espresso.org/quote

     Parallel version (MPI), running on     1 processors

     MPI processes distributed on     1 nodes
     111878 MiB available memory on the printing compute node when the environment starts
 
     Reading input from aiida.in

     Current dimensions of program PWSCF are:
     Max number of different atomic species (ntypx) = 10
     Max number of k-points (npk) =  40000
     Max angular momentum in pseudopotentials (lmaxx) =  4
     Message from routine setup:
     using ibrav=0 with symmetry is DISCOURAGED, use correct ibrav instead
 
     Subspace diagonalization in iterative solution of the eigenvalue problem:
     a serial algorithm will be used

 
     G-vector sticks info
     --------------------
     sticks:   dense  smooth     PW     G-vecs:    dense   smooth      PW
     Sum         877     439    151                17261     6183    1139
 
     Using Slab Decomposition
 


     bravais-lattice index     =            0
     lattice parameter (alat)  =       7.3075  a.u.
     unit-cell volume          =     275.9279 (a.u.)^3
     number of atoms/cell      =            2
     number of atomic types    =            1
     number of electrons       =         8.00
     number of Kohn-Sham states=            4
     kinetic-energy cutoff     =      30.0000  Ry
     charge density cutoff     =     240.0000  Ry
     scf convergence threshold =      1.0E-06
     mixing beta               =       0.7000
     number of iterations used =            8  plain     mixing
     Exchange-correlation= PBE
                           (   1   4   3   4   0   0   0)

     celldm(1)=   7.307523  celldm(2)=   0.000000  celldm(3)=   0.000000
     celldm(4)=   0.000000  celldm(5)=   0.000000  celldm(6)=   0.000000

     crystal axes: (cart. coord. in units of alat)
               a(1) = (   1.000000   0.000000   0.000000 )  
               a(2) = (   0.500000   0.866025   0.000000 )  
               a(3) = (   0.500000   0.288675   0.816497 )  

     reciprocal axes: (cart. coord. in units 2 pi/alat)
               b(1) = (  1.000000 -0.577350 -0.408248 )  
               b(2) = (  0.000000  1.154701 -0.408248 )  
               b(3) = (  0.000000  0.000000  1.224745 )  


     PseudoPot. # 1 for Si read from file:
     ./pseudo/Si.pbe-n-rrkjus_psl.1.0.0.UPF
     MD5 check sum: 0b0bb1205258b0d07b9f9672cf965d36
     Pseudo is Ultrasoft + core correction, Zval =  4.0
     Generated using "atomic" code by A. Dal Corso  v.5.1
     Using radial grid of 1141 points,  6 beta functions with: 
                l(1) =   0
                l(2) =   0
                l(3) =   1
                l(4) =   1
                l(5) =   2
                l(6) =   2
     Q(r) pseudized with 0 coefficients 


     atomic species   valence    mass     pseudopotential
     Si                4.00    28.08500     Si( 1.00)

     12 Sym. Ops., with inversion, found ( 6 have fractional translation)


                                    s                        frac. trans.

      isym =  1     identity                                     

 cryst.   s( 1) = (     1          0          0      )
                  (     0          1          0      )
                  (     0          0          1      )

 cart.    s( 1) = (  1.0000000  0.0000000  0.0000000 )
                  (  0.0000000  1.0000000  0.0000000 )
                  (  0.0000000  0.0000000  1.0000000 )


      isym =  2     180 deg rotation - cart. axis [1,0,0]        

 cryst.   s( 2) = (     1          0          0      )    f =( -0.2500000 )
                  (     1         -1          0      )       ( -0.2500000 )
                  (     1          0         -1      )       ( -0.2500000 )

 cart.    s( 2) = (  1.0000000  0.0000000  0.0000000 )    f =( -0.5000000 )
                  (  0.0000000 -1.0000000  0.0000000 )       ( -0.2886751 )
                  (  0.0000000  0.0000000 -1.0000000 )       ( -0.2041241 )


      isym =  3     120 deg rotation - cryst. axis [0,0,1]       

 cryst.   s( 3) = (    -1          1          0      )
                  (    -1          0          0      )
                  (    -1          0          1      )

 cart.    s( 3) = ( -0.5000000 -0.8660254  0.0000000 )
                  (  0.8660254 -0.5000000  0.0000000 )
                  (  0.0000000  0.0000000  1.0000000 )


      isym =  4     120 deg rotation - cryst. axis [0,0,-1]      

 cryst.   s( 4) = (     0         -1          0      )
                  (     1         -1          0      )
                  (     0         -1          1      )

 cart.    s( 4) = ( -0.5000000  0.8660254 -0.0000000 )
                  ( -0.8660254 -0.5000000  0.0000000 )
                  (  0.0000000  0.0000000  1.0000000 )


      isym =  5     180 deg rotation - cryst. axis [0,1,0]       

 cryst.   s( 5) = (     0         -1          0      )    f =( -0.2500000 )
                  (    -1          0          0      )       ( -0.2500000 )
                  (     0          0         -1      )       ( -0.2500000 )

 cart.    s( 5) = ( -0.5000000 -0.8660254  0.0000000 )    f =( -0.5000000 )
                  ( -0.8660254  0.5000000 -0.0000000 )       ( -0.2886751 )
                  (  0.0000000  0.0000000 -1.0000000 )       ( -0.2041241 )


      isym =  6     180 deg rotation - cryst. axis [1,1,0]       

 cryst.   s( 6) = (    -1          1          0      )    f =( -0.2500000 )
                  (     0          1          0      )       ( -0.2500000 )
                  (     0          1         -1      )       ( -0.2500000 )

 cart.    s( 6) = ( -0.5000000  0.8660254 -0.0000000 )    f =( -0.5000000 )
                  (  0.8660254  0.5000000 -0.0000000 )       ( -0.2886751 )
                  (  0.0000000  0.0000000 -1.0000000 )       ( -0.2041241 )


      isym =  7     inversion                                    

 cryst.   s( 7) = (    -1          0          0      )    f =( -0.2500000 )
                  (     0         -1          0      )       ( -0.2500000 )
                  (     0          0         -1      )       ( -0.2500000 )

 cart.    s( 7) = ( -1.0000000  0.0000000  0.0000000 )    f =( -0.5000000 )
                  (  0.0000000 -1.0000000  0.0000000 )       ( -0.2886751 )
                  (  0.0000000  0.0000000 -1.0000000 )       ( -0.2041241 )


      isym =  8     inv. 180 deg rotation - cart. axis [1,0,0]   

 cryst.   s( 8) = (    -1          0          0      )
                  (    -1          1          0      )
                  (    -1          0          1      )

 cart.    s( 8) = ( -1.0000000  0.0000000  0.0000000 )
                  (  0.0000000  1.0000000  0.0000000 )
                  (  0.0000000  0.0000000  1.0000000 )


      isym =  9     inv. 120 deg rotation - cryst. axis [0,0,1]  

 cryst.   s( 9) = (     1         -1          0      )    f =( -0.2500000 )
                  (     1          0          0      )       ( -0.2500000 )
                  (     1          0         -1      )       ( -0.2500000 )

 cart.    s( 9) = (  0.5000000  0.8660254 -0.0000000 )    f =( -0.5000000 )
                  ( -0.8660254  0.5000000 -0.0000000 )       ( -0.2886751 )
                  (  0.0000000  0.0000000 -1.0000000 )       ( -0.2041241 )


      isym = 10     inv. 120 deg rotation - cryst. axis [0,0,-1] 

 cryst.   s(10) = (     0          1          0      )    f =( -0.2500000 )
                  (    -1          1          0      )       ( -0.2500000 )
                  (     0          1         -1      )       ( -0.2500000 )

 cart.    s(10) = (  0.5000000 -0.8660254  0.0000000 )    f =( -0.5000000 )
                  (  0.8660254  0.5000000 -0.0000000 )       ( -0.2886751 )
                  (  0.0000000  0.0000000 -1.0000000 )       ( -0.2041241 )


      isym = 11     inv. 180 deg rotation - cryst. axis [0,1,0]  

 cryst.   s(11) = (     0          1          0      )
                  (     1          0          0      )
                  (     0          0          1      )

 cart.    s(11) = (  0.5000000  0.8660254 -0.0000000 )
                  (  0.8660254 -0.5000000  0.0000000 )
                  (  0.0000000  0.0000000  1.0000000 )


      isym = 12     inv. 180 deg rotation - cryst. axis [1,1,0]  

 cryst.   s(12) = (     1         -1          0      )
                  (     0         -1          0      )
                  (     0         -1          1      )

 cart.    s(12) = (  0.5000000 -0.8660254  0.0000000 )
                  ( -0.8660254 -0.5000000  0.0000000 )
                  (  0.0000000  0.0000000  1.0000000 )


   Cartesian axes

     site n.     atom                  positions (alat units)
         1        Si     tau(   1) = (   1.5000000   0.8660254   0.6123724  )
         2        Si     tau(   2) = (   1.0000000   0.5773503   0.4082483  )

   Crystallographic axes

     site n.     atom                  positions (cryst. coord.)
         1        Si     tau(   1) = (  0.7500000  0.7500000  0.7500000  )
         2        Si     tau(   2) = (  0.5000000  0.5000000  0.5000000  )

     number of k points=    13
                       cart. coord. in units 2pi/alat
        k(    1) = (   0.0000000   0.0000000   0.0000000), wk =   0.0312500
        k(    2) = (   0.0000000   0.0000000   0.3061862), wk =   0.0625000
        k(    3) = (   0.0000000   0.0000000  -0.6123724), wk =   0.0312500
        k(    4) = (   0.0000000   0.2886751  -0.1020621), wk =   0.1875000
        k(    5) = (   0.0000000   0.2886751   0.2041241), wk =   0.1875000
        k(    6) = (   0.0000000   0.2886751  -0.7144345), wk =   0.1875000
        k(    7) = (   0.0000000   0.2886751  -0.4082483), wk =   0.1875000
        k(    8) = (   0.0000000  -0.5773503   0.2041241), wk =   0.0937500
        k(    9) = (   0.0000000  -0.5773503   0.5103104), wk =   0.1875000
        k(   10) = (   0.0000000  -0.5773503  -0.4082483), wk =   0.0937500
        k(   11) = (   0.2500000  -0.7216878   0.1020621), wk =   0.3750000
        k(   12) = (   0.2500000  -0.7216878   0.4082483), wk =   0.1875000
        k(   13) = (   0.2500000  -0.7216878  -0.2041241), wk =   0.1875000

                       cryst. coord.
        k(    1) = (   0.0000000   0.0000000   0.0000000), wk =   0.0312500
        k(    2) = (   0.0000000   0.0000000   0.2500000), wk =   0.0625000
        k(    3) = (   0.0000000   0.0000000  -0.5000000), wk =   0.0312500
        k(    4) = (   0.0000000   0.2500000   0.0000000), wk =   0.1875000
        k(    5) = (   0.0000000   0.2500000   0.2500000), wk =   0.1875000
        k(    6) = (   0.0000000   0.2500000  -0.5000000), wk =   0.1875000
        k(    7) = (   0.0000000   0.2500000  -0.2500000), wk =   0.1875000
        k(    8) = (   0.0000000  -0.5000000   0.0000000), wk =   0.0937500
        k(    9) = (   0.0000000  -0.5000000   0.2500000), wk =   0.1875000
        k(   10) = (   0.0000000  -0.5000000  -0.5000000), wk =   0.0937500
        k(   11) = (   0.2500000  -0.5000000   0.0000000), wk =   0.3750000
        k(   12) = (   0.2500000  -0.5000000   0.2500000), wk =   0.1875000
        k(   13) = (   0.2500000  -0.5000000  -0.2500000), wk =   0.1875000

     Dense  grid:    17261 G-vectors     FFT dimensions: (  40,  40,  40)

     Smooth grid:     6183 G-vectors     FFT dimensions: (  32,  32,  32)

     Dynamical RAM for                 wfc:       0.05 MB

     Dynamical RAM for     wfc (w. buffer):       0.65 MB

     Dynamical RAM for           str. fact:       0.26 MB

     Dynamical RAM for           local pot:       0.00 MB

     Dynamical RAM for          nlocal pot:       0.42 MB

     Dynamical RAM for                qrad:       1.24 MB

     Dynamical RAM for          rho,v,vnew:       2.25 MB

     Dynamical RAM for               rhoin:       0.75 MB

     Dynamical RAM for            rho*nmix:       4.21 MB

     Dynamical RAM for           G-vectors:       1.03 MB

     Dynamical RAM for          h,s,v(r/c):       0.00 MB

     Dynamical RAM for          <psi|beta>:       0.00 MB

     Dynamical RAM for                 psi:       0.09 MB

     Dynamical RAM for                hpsi:       0.09 MB

     Dynamical RAM for                spsi:       0.09 MB

     Dynamical RAM for      wfcinit/wfcrot:       0.19 MB

     Dynamical RAM for           addusdens:      49.52 MB

     Estimated static dynamical RAM per process >       9.59 MB

     Estimated max dynamical RAM per process >      63.32 MB

     Initial potential from superposition of free atoms

     starting charge       7.9989, renormalised to       8.0000
     Starting wfcs are    8 randomized atomic wfcs

     total cpu time spent up to now is        0.8 secs

     Self-consistent Calculation

     iteration #  1     ecut=    30.00 Ry     beta= 0.70
     Davidson diagonalization with overlap

---- Real-time Memory Report at c_bands before calling an iterative solver
           127 MiB given to the printing process from OS
             0 MiB allocation reported by mallinfo(arena+hblkhd)
        111851 MiB available memory on the node where the printing process lives
------------------
     ethr =  1.00E-02,  avg # of iterations =  2.0

     Threshold (ethr) on eigenvalues was too large:
     Diagonalizing with lowered threshold

     Davidson diagonalization with overlap

---- Real-time Memory Report at c_bands before calling an iterative solver
           135 MiB given to the printing process from OS
             0 MiB allocation reported by mallinfo(arena+hblkhd)
        111846 MiB available memory on the node where the printing process lives
------------------
     ethr =  6.62E-04,  avg # of iterations =  1.5

     total cpu time spent up to now is        1.1 secs

     total energy              =     -22.82390978 Ry
     estimated scf accuracy    <       0.05757528 Ry

     iteration #  2     ecut=    30.00 Ry     beta= 0.70
     Davidson diagonalization with overlap

---- Real-time Memory Report at c_bands before calling an iterative solver
           139 MiB given to the printing process from OS
             0 MiB allocation reported by mallinfo(arena+hblkhd)
        111842 MiB available memory on the node where the printing process lives
------------------
     ethr =  7.20E-04,  avg # of iterations =  1.0

     total cpu time spent up to now is        1.2 secs

     total energy              =     -22.82566004 Ry
     estimated scf accuracy    <       0.00315252 Ry

     iteration #  3     ecut=    30.00 Ry     beta= 0.70
     Davidson diagonalization with overlap

---- Real-time Memory Report at c_bands before calling an iterative solver
           140 MiB given to the printing process from OS
             0 MiB allocation reported by mallinfo(arena+hblkhd)
        111842 MiB available memory on the node where the printing process lives
------------------
     ethr =  3.94E-05,  avg # of iterations =  2.5

     total cpu time spent up to now is        1.4 secs

     total energy              =     -22.82633605 Ry
     estimated scf accuracy    <       0.00010120 Ry

     iteration #  4     ecut=    30.00 Ry     beta= 0.70
     Davidson diagonalization with overlap

---- Real-time Memory Report at c_bands before calling an iterative solver
           140 MiB given to the printing process from OS
             0 MiB allocation reported by mallinfo(arena+hblkhd)
        111842 MiB available memory on the node where the printing process lives
------------------
     ethr =  1.27E-06,  avg # of iterations =  3.8

     total cpu time spent up to now is        1.6 secs

     total energy              =     -22.82640261 Ry
     estimated scf accuracy    <       0.00001207 Ry

     iteration #  5     ecut=    30.00 Ry     beta= 0.70
     Davidson diagonalization with overlap

---- Real-time Memory Report at c_bands before calling an iterative solver
           140 MiB given to the printing process from OS
             0 MiB allocation reported by mallinfo(arena+hblkhd)
        111842 MiB available memory on the node where the printing process lives
------------------
     ethr =  1.51E-07,  avg # of iterations =  3.2

     total cpu time spent up to now is        1.8 secs

     End of self-consistent calculation

          k = 0.0000 0.0000 0.0000 (   749 PWs)   bands (ev):

    -5.7966   6.0312   6.0312   6.0313

     occupation numbers 
     1.0000   1.0000   1.0000   1.0000

          k = 0.0000 0.0000 0.3062 (   769 PWs)   bands (ev):

    -5.0114   2.1339   5.2804   5.2804

     occupation numbers 
     1.0000   1.0000   1.0000   1.0000

          k = 0.0000 0.0000-0.6124 (   778 PWs)   bands (ev):

    -3.5153  -0.8533   4.8454   4.8454

     occupation numbers 
     1.0000   1.0000   1.0000   1.0000

          k = 0.0000 0.2887-0.1021 (   769 PWs)   bands (ev):

    -5.0114   2.1338   5.2804   5.2804

     occupation numbers 
     1.0000   1.0000   1.0000   1.0000

          k = 0.0000 0.2887 0.2041 (   769 PWs)   bands (ev):

    -4.7337   2.5072   4.1709   4.1710

     occupation numbers 
     1.0000   1.0000   1.0000   1.0000

          k = 0.0000 0.2887-0.7144 (   763 PWs)   bands (ev):

    -3.1305  -0.3032   2.5531   3.8591

     occupation numbers 
     1.0000   1.0000   1.0000   1.0000

          k = 0.0000 0.2887-0.4082 (   762 PWs)   bands (ev):

    -3.7912   0.5822   2.3451   4.7204

     occupation numbers 
     1.0000   1.0000   1.0000   1.0000

          k = 0.0000-0.5774 0.2041 (   778 PWs)   bands (ev):

    -3.5152  -0.8534   4.8454   4.8454

     occupation numbers 
     1.0000   1.0000   1.0000   1.0000

          k = 0.0000-0.5774 0.5103 (   763 PWs)   bands (ev):

    -3.1305  -0.3033   2.5532   3.8591

     occupation numbers 
     1.0000   1.0000   1.0000   1.0000

          k = 0.0000-0.5774-0.4082 (   774 PWs)   bands (ev):

    -1.7255  -1.7255   3.2225   3.2225

     occupation numbers 
     1.0000   1.0000   1.0000   1.0000

          k = 0.2500-0.7217 0.1021 (   763 PWs)   bands (ev):

    -3.1305  -0.3033   2.5532   3.8591

     occupation numbers 
     1.0000   1.0000   1.0000   1.0000

          k = 0.2500-0.7217 0.4082 (   762 PWs)   bands (ev):

    -3.7912   0.5821   2.3451   4.7204

     occupation numbers 
     1.0000   1.0000   1.0000   1.0000

          k = 0.2500-0.7217-0.2041 (   744 PWs)   bands (ev):

    -1.5699  -1.5699   2.2521   2.2521

     occupation numbers 
     1.0000   1.0000   1.0000   1.0000

     highest occupied level (ev):     6.0313

!    total energy              =     -22.82640797 Ry
     estimated scf accuracy    <       0.00000057 Ry

     The total energy is the sum of the following terms:
     one-electron contribution =       5.00573048 Ry
     hartree contribution      =       1.14283769 Ry
     xc contribution           =     -12.29499780 Ry
     ewald contribution        =     -16.67997834 Ry

     convergence has been achieved in   5 iterations

     Writing all to output data dir ./out/aiida.save/ :
     XML data file, charge density, pseudopotentials, collected wavefunctions
 
     init_run     :      0.27s CPU      0.70s WALL (       1 calls)
     electrons    :      0.98s CPU      1.04s WALL (       1 calls)

     Called by init_run:
     wfcinit      :      0.05s CPU      0.05s WALL (       1 calls)
     wfcinit:atom :      0.00s CPU      0.00s WALL (      13 calls)
     wfcinit:wfcr :      0.05s CPU      0.05s WALL (      13 calls)
     potinit      :      0.02s CPU      0.03s WALL (       1 calls)
     hinit0       :      0.16s CPU      0.59s WALL (       1 calls)

     Called by electrons:
     c_bands      :      0.53s CPU      0.53s WALL (       6 calls)
     sum_band     :      0.25s CPU      0.28s WALL (       6 calls)
     v_of_rho     :      0.08s CPU      0.08s WALL (       6 calls)
     v_h          :      0.00s CPU      0.00s WALL (       6 calls)
     v_xc         :      0.08s CPU      0.08s WALL (       6 calls)
     newd         :      0.15s CPU      0.17s WALL (       6 calls)
     mix_rho      :      0.00s CPU      0.00s WALL (       6 calls)

     Called by c_bands:
     init_us_2    :      0.02s CPU      0.02s WALL (     169 calls)
     init_us_2:cp :      0.02s CPU      0.02s WALL (     169 calls)
     cegterg      :      0.44s CPU      0.44s WALL (      78 calls)

     Called by sum_band:
     sum_band:wei :      0.00s CPU      0.00s WALL (       6 calls)
     sum_band:loo :      0.08s CPU      0.08s WALL (       6 calls)
     sum_band:buf :      0.00s CPU      0.00s WALL (      78 calls)
     sum_band:ini :      0.01s CPU      0.01s WALL (      78 calls)
     sum_band:cal :      0.00s CPU      0.00s WALL (      78 calls)
     sum_band:bec :      0.00s CPU      0.00s WALL (      78 calls)
     addusdens    :      0.16s CPU      0.18s WALL (       6 calls)
                                        0.00s GPU  (       6 calls)
     addusd:skk   :      0.00s CPU      0.00s WALL (       6 calls)
                                        0.00s GPU  (       6 calls)

     Called by *egterg:
     cdiaghg      :      0.00s CPU      0.00s WALL (     247 calls)
     cegterg:over :      0.01s CPU      0.01s WALL (     182 calls)
     cegterg:upda :      0.00s CPU      0.00s WALL (     182 calls)
     cegterg:last :      0.00s CPU      0.00s WALL (     164 calls)
     h_psi        :      0.46s CPU      0.46s WALL (     273 calls)
     s_psi        :      0.01s CPU      0.01s WALL (     273 calls)
     g_psi        :      0.00s CPU      0.00s WALL (     182 calls)

     Called by h_psi:
     h_psi:calbec :      0.01s CPU      0.01s WALL (     273 calls)
     vloc_psi     :      0.44s CPU      0.44s WALL (     273 calls)
     add_vuspsi   :      0.01s CPU      0.01s WALL (     273 calls)

     General routines
     calbec       :      0.01s CPU      0.01s WALL (     351 calls)
     fft          :      0.03s CPU      0.03s WALL (      77 calls)
     ffts         :      0.00s CPU      0.00s WALL (      12 calls)
     fftw         :      0.46s CPU      0.46s WALL (    2304 calls)
     interpolate  :      0.00s CPU      0.00s WALL (       6 calls)
 
     Parallel routines
 
     PWSCF        :      1.30s CPU      1.88s WALL

 
   This run was terminated on:   1:11:43  29Jan2025            

=------------------------------------------------------------------------------=
   JOB DONE.
=------------------------------------------------------------------------------=
