File written on  3May2025 at 20:29:12 

calc_only_A  :  F

begin real_lattice
   3.8669746   0.0000000   0.0000000
   1.9334873   3.3488983   0.0000000
   1.9334873   1.1162994   3.1573716
end real_lattice

begin recip_lattice
   1.6248323  -0.9380974  -0.6633350
   0.0000000   1.8761947  -0.6633350
   0.0000000   0.0000000   1.9900050
end recip_lattice

begin kpoints
     1
    0.00000000    0.00000000    0.00000000
end kpoints

begin spinor_projections
    16
   0.75000    0.75000    0.75000     0  1  1
    0.0000000  0.0000000  1.0000000   1.0000000  0.0000000  0.0000000    1.00
    1   0.0000000  0.0000000  1.0000000
   0.75000    0.75000    0.75000     0  1  1
    0.0000000  0.0000000  1.0000000   1.0000000  0.0000000  0.0000000    1.00
   -1   0.0000000  0.0000000  1.0000000
   0.75000    0.75000    0.75000     1  1  1
    0.0000000  0.0000000  1.0000000   1.0000000  0.0000000  0.0000000    1.00
    1   0.0000000  0.0000000  1.0000000
   0.75000    0.75000    0.75000     1  1  1
    0.0000000  0.0000000  1.0000000   1.0000000  0.0000000  0.0000000    1.00
   -1   0.0000000  0.0000000  1.0000000
   0.75000    0.75000    0.75000     1  2  1
    0.0000000  0.0000000  1.0000000   1.0000000  0.0000000  0.0000000    1.00
    1   0.0000000  0.0000000  1.0000000
   0.75000    0.75000    0.75000     1  2  1
    0.0000000  0.0000000  1.0000000   1.0000000  0.0000000  0.0000000    1.00
   -1   0.0000000  0.0000000  1.0000000
   0.75000    0.75000    0.75000     1  3  1
    0.0000000  0.0000000  1.0000000   1.0000000  0.0000000  0.0000000    1.00
    1   0.0000000  0.0000000  1.0000000
   0.75000    0.75000    0.75000     1  3  1
    0.0000000  0.0000000  1.0000000   1.0000000  0.0000000  0.0000000    1.00
   -1   0.0000000  0.0000000  1.0000000
   0.50000    0.50000    0.50000     0  1  1
    0.0000000  0.0000000  1.0000000   1.0000000  0.0000000  0.0000000    1.00
    1   0.0000000  0.0000000  1.0000000
   0.50000    0.50000    0.50000     0  1  1
    0.0000000  0.0000000  1.0000000   1.0000000  0.0000000  0.0000000    1.00
   -1   0.0000000  0.0000000  1.0000000
   0.50000    0.50000    0.50000     1  1  1
    0.0000000  0.0000000  1.0000000   1.0000000  0.0000000  0.0000000    1.00
    1   0.0000000  0.0000000  1.0000000
   0.50000    0.50000    0.50000     1  1  1
    0.0000000  0.0000000  1.0000000   1.0000000  0.0000000  0.0000000    1.00
   -1   0.0000000  0.0000000  1.0000000
   0.50000    0.50000    0.50000     1  2  1
    0.0000000  0.0000000  1.0000000   1.0000000  0.0000000  0.0000000    1.00
    1   0.0000000  0.0000000  1.0000000
   0.50000    0.50000    0.50000     1  2  1
    0.0000000  0.0000000  1.0000000   1.0000000  0.0000000  0.0000000    1.00
   -1   0.0000000  0.0000000  1.0000000
   0.50000    0.50000    0.50000     1  3  1
    0.0000000  0.0000000  1.0000000   1.0000000  0.0000000  0.0000000    1.00
    1   0.0000000  0.0000000  1.0000000
   0.50000    0.50000    0.50000     1  3  1
    0.0000000  0.0000000  1.0000000   1.0000000  0.0000000  0.0000000    1.00
   -1   0.0000000  0.0000000  1.0000000
end spinor_projections

begin nnkpts
   8
     1     1      1   1   1
     1     1      1   0   0
     1     1      0   1   0
     1     1      0   0   1
     1     1      0   0  -1
     1     1      0  -1   0
     1     1     -1   0   0
     1     1     -1  -1  -1
end nnkpts

begin exclude_bands
   0
end exclude_bands
