 
             +---------------------------------------------------+
             |                                                   |
             |                   WANNIER90                       |
             |                                                   |
             +---------------------------------------------------+
             |                                                   |
             |        Welcome to the Maximally-Localized         |
             |        Generalized Wannier Functions code         |
             |            http://www.wannier.org                 |
             |                                                   |
             |                                                   |
             |  Wannier90 Developer Group:                       |
             |    Giovanni Pizzi    (EPFL)                       |
             |    Valerio Vitale    (Cambridge)                  |
             |    David Vanderbilt  (Rutgers University)         |
             |    Nicola Marzari    (EPFL)                       |
             |    Ivo Souza         (Universidad del Pais Vasco) |
             |    Arash A. Mostofi  (Imperial College London)    |
             |    Jonathan R. Yates (University of Oxford)       |
             |                                                   |
             |  For the full list of Wannier90 3.x authors,      |
             |  please check the code documentation and the      |
             |  README on the GitHub page of the code            |
             |                                                   |
             |                                                   |
             |  Please cite                                      |
             |                                                   |
             |  [ref] "Wannier90 as a community code:            |
             |        new features and applications",            |
             |        G. Pizzi et al., J. Phys. Cond. Matt. 32,  |
             |        165902 (2020).                             |
             |        http://doi.org/10.1088/1361-648X/ab51ff    |
             |                                                   |
             |  in any publications arising from the use of      |
             |  this code. For the method please cite            |
             |                                                   |
             |  [ref] "Maximally Localized Generalised Wannier   |
             |         Functions for Composite Energy Bands"     |
             |         N. Marzari and D. Vanderbilt              |
             |         Phys. Rev. B 56 12847 (1997)              |
             |                                                   |
             |  [ref] "Maximally Localized Wannier Functions     |
             |         for Entangled Energy Bands"               |
             |         I. Souza, N. Marzari and D. Vanderbilt    |
             |         Phys. Rev. B 65 035109 (2001)             |
             |                                                   |
             |                                                   |
             | Copyright (c) 1996-2020                           |
             |        The Wannier90 Developer Group and          |
             |        individual contributors                    |
             |                                                   |
             |      Release: 3.1.0        5th March    2020      |
             |                                                   |
             | This program is free software; you can            |
             | redistribute it and/or modify it under the terms  |
             | of the GNU General Public License as published by |
             | the Free Software Foundation; either version 2 of |
             | the License, or (at your option) any later version|
             |                                                   |
             | This program is distributed in the hope that it   |
             | will be useful, but WITHOUT ANY WARRANTY; without |
             | even the implied warranty of MERCHANTABILITY or   |
             | FITNESS FOR A PARTICULAR PURPOSE. See the GNU     |
             | General Public License for more details.          |
             |                                                   |
             | You should have received a copy of the GNU General|
             | Public License along with this program; if not,   |
             | write to the Free Software Foundation, Inc.,      |
             | 675 Mass Ave, Cambridge, MA 02139, USA.           |
             |                                                   |
             +---------------------------------------------------+
             |    Execution started on 20Apr2025 at 13:23:09     |
             +---------------------------------------------------+
 
 ******************************************************************************
 * -> Using CODATA 2006 constant values                                       *
 *    (http://physics.nist.gov/cuu/Constants/index.html)                      *
 * -> Using Bohr value from CODATA                                            *
 ******************************************************************************
 

 Running in serial (with serial executable)
 
                                    ------
                                    SYSTEM
                                    ------
 
                              Lattice Vectors (Ang)
                    a_1     3.866975   0.000000   0.000000
                    a_2     1.933487   3.348898   0.000000
                    a_3     1.933487   1.116299   3.157372
 
                   Unit Cell Volume:      40.88829  (Ang^3)
 
                        Reciprocal-Space Vectors (Ang^-1)
                    b_1     1.624832  -0.938097  -0.663335
                    b_2     0.000000   1.876195  -0.663335
                    b_3     0.000000   0.000000   1.990005
  
 *----------------------------------------------------------------------------*
 |   Site       Fractional Coordinate          Cartesian Coordinate (Ang)     |
 +----------------------------------------------------------------------------+
 | Si   1   0.75000   0.75000   0.75000   |    5.80046   3.34890   2.36803    |
 | Si   2   0.50000   0.50000   0.50000   |    3.86697   2.23260   1.57869    |
 *----------------------------------------------------------------------------*
                                ------------
                                K-POINT GRID
                                ------------
  
             Grid size =  2 x  2 x  2      Total points =    8
  
  
 *---------------------------------- MAIN ------------------------------------*
 |  Number of Wannier Functions               :                16             |
 |  Number of Objective Wannier Functions     :                16             |
 |  Number of input Bloch states              :                32             |
 |  Output verbosity (1=low, 5=high)          :                 1             |
 |  Timing Level (1=low, 5=high)              :                 1             |
 |  Optimisation (0=memory, 3=speed)          :                 3             |
 |  Length Unit                               :               Ang             |
 |  Post-processing setup (write *.nnkp)      :                 F             |
 |  Using Gamma-only branch of algorithms     :                 F             |
 *----------------------------------------------------------------------------*
 *------------------------------- WANNIERISE ---------------------------------*
 |  Total number of iterations                :               100             |
 |  Number of CG steps before reset           :                 5             |
 |  Trial step length for line search         :             2.000             |
 |  Convergence tolerence                     :         0.100E-09             |
 |  Convergence window                        :                -1             |
 |  Iterations between writing output         :                 1             |
 |  Iterations between backing up to disk     :               100             |
 |  Write r^2_nm to file                      :                 F             |
 |  Write xyz WF centres to file              :                 F             |
 |  Write on-site energies <0n|H|0n> to file  :                 F             |
 |  Use guiding centre to control phases      :                 F             |
 |  Use phases for initial projections        :                 F             |
 *----------------------------------------------------------------------------*
 *------------------------------- DISENTANGLE --------------------------------*
 |  Using band disentanglement                :                 T             |
 |  Total number of iterations                :               200             |
 |  Mixing ratio                              :             0.500             |
 |  Convergence tolerence                     :         1.000E-10             |
 |  Convergence window                        :                 3             |
 *----------------------------------------------------------------------------*
 *-------------------------------- PLOTTING ----------------------------------*
 |  Plotting Hamiltonian in WF basis          :                 T             |
 *----------------------------------------------------------------------------*
 Time to read parameters        0.003 (sec)

 *---------------------------------- K-MESH ----------------------------------*
 +----------------------------------------------------------------------------+
 |                    Distance to Nearest-Neighbour Shells                    |
 |                    ------------------------------------                    |
 |          Shell             Distance (Ang^-1)          Multiplicity         |
 |          -----             -----------------          ------------         |
 |             1                   0.995003                      8            |
 |             2                   1.148930                      6            |
 |             3                   1.624832                     12            |
 |             4                   1.905285                     24            |
 |             5                   1.990005                      8            |
 |             6                   2.297860                      6            |
 |             7                   2.504035                     24            |
 |             8                   2.569085                     24            |
 |             9                   2.814292                     24            |
 |            10                   2.985008                     32            |
 |            11                   3.249665                     12            |
 |            12                   3.398581                     48            |
 |            13                   3.446790                     30            |
 |            14                   3.633235                     24            |
 |            15                   3.767019                     24            |
 |            16                   3.810570                     24            |
 |            17                   3.980010                      8            |
 |            18                   4.102500                     48            |
 |            19                   4.142526                     24            |
 |            20                   4.298902                     48            |
 |            21                   4.412549                     72            |
 |            22                   4.595720                      6            |
 |            23                   4.702198                     24            |
 |            24                   4.737159                     48            |
 |            25                   4.874497                     36            |
 |            26                   4.975013                     56            |
 |            27                   5.008069                     24            |
 |            28                   5.138171                     24            |
 |            29                   5.233625                     72            |
 |            30                   5.265058                     48            |
 |            31                   5.388959                     24            |
 |            32                   5.480047                     48            |
 |            33                   5.628584                     24            |
 |            34                   5.715854                     72            |
 |            35                   5.744650                     30            |
 |            36                   5.858416                     72            |
 +----------------------------------------------------------------------------+
 | The b-vectors are chosen automatically                                     |
 | The following shells are used:   1                                         |
 +----------------------------------------------------------------------------+
 |                        Shell   # Nearest-Neighbours                        |
 |                        -----   --------------------                        |
 |                          1               8                                 |
 +----------------------------------------------------------------------------+
 | Completeness relation is fully satisfied [Eq. (B1), PRB 56, 12847 (1997)]  |
 +----------------------------------------------------------------------------+
 |                  b_k Vectors (Ang^-1) and Weights (Ang^2)                  |
 |                  ----------------------------------------                  |
 |            No.         b_k(x)      b_k(y)      b_k(z)        w_b           |
 |            ---        --------------------------------     --------        |
 |             1         0.000000    0.000000    0.995003     0.378776        |
 |             2         0.000000    0.938097   -0.331668     0.378776        |
 |             3         0.812416   -0.469049   -0.331668     0.378776        |
 |             4         0.812416    0.469049    0.331668     0.378776        |
 |             5         0.000000    0.000000   -0.995003     0.378776        |
 |             6         0.000000   -0.938097    0.331668     0.378776        |
 |             7        -0.812416    0.469049    0.331668     0.378776        |
 |             8        -0.812416   -0.469049   -0.331668     0.378776        |
 +----------------------------------------------------------------------------+
 |                           b_k Directions (Ang^-1)                          |
 |                           -----------------------                          |
 |            No.           x           y           z                         |
 |            ---        --------------------------------                     |
 |             1         0.000000    0.000000    0.995003                     |
 |             2         0.000000    0.938097   -0.331668                     |
 |             3         0.812416   -0.469049   -0.331668                     |
 |             4         0.812416    0.469049    0.331668                     |
 +----------------------------------------------------------------------------+
  
 Time to get kmesh              0.006 (sec)
 *============================================================================*
 |                              MEMORY ESTIMATE                               |
 |         Maximum RAM allocated during each phase of the calculation         |
 *============================================================================*
 |                        Disentanglement            1.47 Mb                  |
 |                            Wannierise:            0.76 Mb                  |
 |                          plot_wannier:            0.76 Mb                  |
 *----------------------------------------------------------------------------*
  
 Starting a new Wannier90 calculation ...


 Reading overlaps from aiida.mmn    :  Created on 20Apr2025 at 13:22:45

 Reading projections from aiida.amn :  Created on 20Apr2025 at 13:22:45

 Time to read overlaps          0.042 (sec)

 *------------------------------- DISENTANGLE --------------------------------*
 +----------------------------------------------------------------------------+
 |                              Energy  Windows                               |
 |                              ---------------                               |
 |                   Outer:   -5.58785  to   29.38433  (eV)                   |
 |                   Inner:   -5.58785  to    7.31764  (eV)                   |
 +----------------------------------------------------------------------------+
   Number of target bands to extract:   16

                   Unitarised projection of Wannier functions                  
                   ------------------------------------------                  
   A_mn = <psi_m|g_n> --> S = A.A^+ --> U = S^-1/2.A
   In dis_project... done
   Using an inner window (linner = T)
   In dis_proj_froz... done

                   Extraction of optimally-connected subspace                  
                   ------------------------------------------                  
 +---------------------------------------------------------------------+<-- DIS
 |  Iter     Omega_I(i-1)      Omega_I(i)      Delta (frac.)    Time   |<-- DIS
 +---------------------------------------------------------------------+<-- DIS
       1      13.96038578      13.45871915       3.727E-02      0.00    <-- DIS
       2      13.37101964      13.43579207      -4.821E-03      0.00    <-- DIS
       3      13.40004844      13.42630672      -1.956E-03      0.00    <-- DIS
       4      13.41061685      13.42243107      -8.802E-04      0.01    <-- DIS
       5      13.41448156      13.42078479      -4.697E-04      0.01    <-- DIS
       6      13.41608573      13.42006496      -2.965E-04      0.01    <-- DIS
       7      13.41695587      13.41974555      -2.079E-04      0.01    <-- DIS
       8      13.41756318      13.41960281      -1.520E-04      0.01    <-- DIS
       9      13.41803770      13.41953879      -1.119E-04      0.01    <-- DIS
      10      13.41841417      13.41951003      -8.166E-05      0.01    <-- DIS
      11      13.41870695      13.41949709      -5.888E-05      0.02    <-- DIS
      12      13.41892867      13.41949126      -4.192E-05      0.02    <-- DIS
      13      13.41909251      13.41948864      -2.952E-05      0.02    <-- DIS
      14      13.41921117      13.41948746      -2.059E-05      0.02    <-- DIS
      15      13.41929571      13.41948693      -1.425E-05      0.02    <-- DIS
      16      13.41935518      13.41948669      -9.800E-06      0.02    <-- DIS
      17      13.41939659      13.41948658      -6.706E-06      0.03    <-- DIS
      18      13.41942520      13.41948653      -4.570E-06      0.03    <-- DIS
      19      13.41944485      13.41948651      -3.104E-06      0.03    <-- DIS
      20      13.41945827      13.41948650      -2.103E-06      0.03    <-- DIS
      21      13.41946740      13.41948649      -1.422E-06      0.03    <-- DIS
      22      13.41947360      13.41948649      -9.602E-07      0.03    <-- DIS
      23      13.41947780      13.41948649      -6.475E-07      0.04    <-- DIS
      24      13.41948063      13.41948649      -4.361E-07      0.04    <-- DIS
      25      13.41948255      13.41948649      -2.936E-07      0.04    <-- DIS
      26      13.41948384      13.41948649      -1.975E-07      0.04    <-- DIS
      27      13.41948471      13.41948649      -1.328E-07      0.04    <-- DIS
      28      13.41948529      13.41948649      -8.925E-08      0.04    <-- DIS
      29      13.41948568      13.41948649      -5.998E-08      0.05    <-- DIS
      30      13.41948595      13.41948649      -4.030E-08      0.05    <-- DIS
      31      13.41948612      13.41948649      -2.707E-08      0.05    <-- DIS
      32      13.41948624      13.41948649      -1.819E-08      0.05    <-- DIS
      33      13.41948632      13.41948649      -1.222E-08      0.05    <-- DIS
      34      13.41948638      13.41948649      -8.208E-09      0.05    <-- DIS
      35      13.41948641      13.41948649      -5.515E-09      0.06    <-- DIS
      36      13.41948644      13.41948649      -3.705E-09      0.06    <-- DIS
      37      13.41948645      13.41948649      -2.490E-09      0.06    <-- DIS
      38      13.41948646      13.41948649      -1.673E-09      0.06    <-- DIS
      39      13.41948647      13.41948649      -1.125E-09      0.06    <-- DIS
      40      13.41948648      13.41948649      -7.559E-10      0.06    <-- DIS
      41      13.41948648      13.41948649      -5.079E-10      0.07    <-- DIS
      42      13.41948648      13.41948649      -3.411E-10      0.07    <-- DIS
      43      13.41948648      13.41948649      -2.288E-10      0.07    <-- DIS
      44      13.41948648      13.41948649      -1.531E-10      0.07    <-- DIS
      45      13.41948649      13.41948649      -1.020E-10      0.07    <-- DIS
      46      13.41948649      13.41948649      -6.749E-11      0.07    <-- DIS
      47      13.41948649      13.41948649      -4.409E-11      0.08    <-- DIS
      48      13.41948649      13.41948649      -2.817E-11      0.08    <-- DIS

             <<<      Delta < 1.000E-10  over  3 iterations     >>>
             <<< Disentanglement convergence criteria satisfied >>>

        Final Omega_I    13.41948649 (Ang^2)

 +----------------------------------------------------------------------------+

 Time to disentangle bands      0.083 (sec)

 Writing checkpoint file aiida.chk... done

 
 *------------------------------- WANNIERISE ---------------------------------*
 +--------------------------------------------------------------------+<-- CONV
 | Iter  Delta Spread     RMS Gradient      Spread (Ang^2)      Time  |<-- CONV
 +--------------------------------------------------------------------+<-- CONV
 
 ------------------------------------------------------------------------------
 Initial State
  WF centre and spread    1  (  1.933487,  1.116299,  0.789343 )     8.42630517
  WF centre and spread    2  (  1.933487,  1.116299,  0.789343 )     8.42629834
  WF centre and spread    3  (  1.933487,  1.116299,  0.493477 )     8.60204960
  WF centre and spread    4  (  1.933487,  1.116300,  0.493494 )     8.60205301
  WF centre and spread    5  (  1.933487,  1.291548,  0.913260 )     8.69161614
  WF centre and spread    6  (  1.933486,  1.291532,  0.913250 )     8.69161561
  WF centre and spread    7  (  1.933487,  0.908185,  0.914464 )     8.68026257
  WF centre and spread    8  (  1.933487,  0.908204,  0.914451 )     8.68025992
  WF centre and spread    9  (  0.000000, -0.000000,  0.000000 )     9.20622051
  WF centre and spread   10  (  0.000000,  0.000000,  0.000001 )     9.20621964
  WF centre and spread   11  (  0.000000,  0.000001,  0.295850 )     9.20517195
  WF centre and spread   12  ( -0.000000, -0.000001,  0.295869 )     9.20514880
  WF centre and spread   13  ( -0.000003, -0.175235, -0.123907 )     9.14366052
  WF centre and spread   14  (  0.000001, -0.175250, -0.123919 )     9.14362989
  WF centre and spread   15  ( -0.000001,  0.208097, -0.125110 )     9.15537658
  WF centre and spread   16  (  0.000000,  0.208119, -0.125121 )     9.15533707
  Sum of centres and spreads ( 15.467893,  8.930397,  6.314744 )   142.22122534
 
      0     0.142E+03     0.0000000000      142.2212253446       0.08  <-- CONV
        O_D=    119.8913790 O_OD=      8.9103598 O_TOT=    142.2212253 <-- SPRD
 ------------------------------------------------------------------------------
 Cycle:      1
  WF centre and spread    1  (  1.933487,  1.239516,  0.946430 )     8.22105949
  WF centre and spread    2  (  1.933487,  1.239519,  0.946433 )     8.22105239
  WF centre and spread    3  (  1.933487,  1.117752,  0.191289 )     7.80472061
  WF centre and spread    4  (  1.933487,  1.117753,  0.191301 )     7.80470364
  WF centre and spread    5  (  1.933487,  1.345394,  0.950848 )     8.20131479
  WF centre and spread    6  (  1.933485,  1.345375,  0.950835 )     8.20129839
  WF centre and spread    7  (  1.933487,  0.669644,  0.964408 )     7.99686135
  WF centre and spread    8  (  1.933487,  0.669661,  0.964394 )     7.99683450
  WF centre and spread    9  (  0.000001,  0.074488,  0.103243 )     8.88667973
  WF centre and spread   10  ( -0.000000,  0.074477,  0.103233 )     8.88666881
  WF centre and spread   11  (  0.000000,  0.006438, -0.075059 )     9.04034648
  WF centre and spread   12  ( -0.000000,  0.006436, -0.075025 )     9.04036574
  WF centre and spread   13  ( -0.000003, -0.076489, -0.047379 )     8.98585092
  WF centre and spread   14  (  0.000001, -0.076503, -0.047391 )     8.98584636
  WF centre and spread   15  ( -0.000001, -0.029842, -0.021670 )     8.99821573
  WF centre and spread   16  (  0.000000, -0.029803, -0.021683 )     8.99822117
  Sum of centres and spreads ( 15.467891,  8.693816,  6.024206 )   136.27004010
 
      1    -0.595E+01     2.7487630595      136.2700401000       0.11  <-- CONV
        O_D=    111.4838378 O_OD=     11.3667159 O_TOT=    136.2700401 <-- SPRD
 Delta: O_D= -0.8407541E+01 O_OD=  0.2456356E+01 O_TOT= -0.5951185E+01 <-- DLTA
 ------------------------------------------------------------------------------
 Cycle:      2
  WF centre and spread    1  (  1.933487,  1.256610,  0.960038 )     8.09285837
  WF centre and spread    2  (  1.933487,  1.256612,  0.960041 )     8.09285340
  WF centre and spread    3  (  1.933487,  1.117514,  0.156568 )     7.55668430
  WF centre and spread    4  (  1.933487,  1.117515,  0.156578 )     7.55665599
  WF centre and spread    5  (  1.933487,  1.346606,  0.951891 )     8.02516151
  WF centre and spread    6  (  1.933485,  1.346588,  0.951878 )     8.02513302
  WF centre and spread    7  (  1.933487,  0.631564,  0.968748 )     7.76326995
  WF centre and spread    8  (  1.933487,  0.631578,  0.968735 )     7.76322930
  WF centre and spread    9  (  0.000001,  0.098136,  0.139349 )     8.85486030
  WF centre and spread   10  ( -0.000000,  0.098122,  0.139338 )     8.85485425
  WF centre and spread   11  (  0.000000,  0.010090, -0.218947 )     9.04367040
  WF centre and spread   12  ( -0.000000,  0.010088, -0.218910 )     9.04369702
  WF centre and spread   13  ( -0.000003, -0.048615, -0.024985 )     9.01670789
  WF centre and spread   14  (  0.000001, -0.048630, -0.024996 )     9.01670594
  WF centre and spread   15  ( -0.000001, -0.109447,  0.014118 )     9.03336415
  WF centre and spread   16  (  0.000000, -0.109405,  0.014105 )     9.03337725
  Sum of centres and spreads ( 15.467891,  8.604926,  5.893551 )   134.77308307
 
      2    -0.150E+01     2.7337746998      134.7730830678       0.11  <-- CONV
        O_D=    109.3460314 O_OD=     12.0075652 O_TOT=    134.7730831 <-- SPRD
 Delta: O_D= -0.2137806E+01 O_OD=  0.6408494E+00 O_TOT= -0.1496957E+01 <-- DLTA
 ------------------------------------------------------------------------------
 Cycle:      3
  WF centre and spread    1  (  1.933487,  1.272874,  0.965064 )     7.69245700
  WF centre and spread    2  (  1.933487,  1.272877,  0.965067 )     7.69245794
  WF centre and spread    3  (  1.933487,  1.116056,  0.100704 )     7.03691241
  WF centre and spread    4  (  1.933487,  1.116056,  0.100709 )     7.03685463
  WF centre and spread    5  (  1.933487,  1.347902,  0.953097 )     7.65260312
  WF centre and spread    6  (  1.933485,  1.347885,  0.953085 )     7.65254309
  WF centre and spread    7  (  1.933487,  0.565340,  0.977473 )     7.27769293
  WF centre and spread    8  (  1.933487,  0.565350,  0.977461 )     7.27761771
  WF centre and spread    9  (  0.000001,  0.139159,  0.197178 )     8.77795041
  WF centre and spread   10  ( -0.000000,  0.139142,  0.197167 )     8.77795765
  WF centre and spread   11  (  0.000000,  0.019326, -0.511992 )     8.98634803
  WF centre and spread   12  (  0.000000,  0.019324, -0.511960 )     8.98638066
  WF centre and spread   13  ( -0.000003,  0.005327,  0.018393 )     9.06281609
  WF centre and spread   14  (  0.000001,  0.005314,  0.018384 )     9.06282186
  WF centre and spread   15  ( -0.000001, -0.275164,  0.089146 )     9.06309542
  WF centre and spread   16  (  0.000000, -0.275118,  0.089134 )     9.06312517
  Sum of centres and spreads ( 15.467890,  8.381650,  5.578111 )   131.09963412
 
      3    -0.367E+01     3.0041179300      131.0996341164       0.11  <-- CONV
        O_D=    104.6881993 O_OD=     12.9919483 O_TOT=    131.0996341 <-- SPRD
 Delta: O_D= -0.4657832E+01 O_OD=  0.9843831E+00 O_TOT= -0.3673449E+01 <-- DLTA
 ------------------------------------------------------------------------------
 Cycle:      4
  WF centre and spread    1  (  1.933487,  1.250798,  0.918205 )     6.42857507
  WF centre and spread    2  (  1.933486,  1.250799,  0.918204 )     6.42858846
  WF centre and spread    3  (  1.933487,  1.107970,  0.006597 )     5.89941348
  WF centre and spread    4  (  1.933487,  1.107969,  0.006592 )     5.89928636
  WF centre and spread    5  (  1.933487,  1.347987,  0.952574 )     6.82067769
  WF centre and spread    6  (  1.933484,  1.347974,  0.952564 )     6.82053996
  WF centre and spread    7  (  1.933487,  0.458021,  0.991422 )     6.24471875
  WF centre and spread    8  (  1.933487,  0.458023,  0.991414 )     6.24456493
  WF centre and spread    9  (  0.000002,  0.196471,  0.252348 )     8.97065850
  WF centre and spread   10  ( -0.000001,  0.196451,  0.252338 )     8.97067842
  WF centre and spread   11  ( -0.000000,  0.040220, -0.979193 )     8.97029718
  WF centre and spread   12  (  0.000000,  0.040217, -0.979180 )     8.97031782
  WF centre and spread   13  ( -0.000004,  0.116549,  0.107097 )     9.15891717
  WF centre and spread   14  (  0.000001,  0.116541,  0.107091 )     9.15893519
  WF centre and spread   15  ( -0.000001, -0.600487,  0.241619 )     9.08373099
  WF centre and spread   16  ( -0.000000, -0.600449,  0.241612 )     9.08377222
  Sum of centres and spreads ( 15.467890,  7.835053,  4.981304 )   123.15367218
 
      4    -0.795E+01     3.5012235260      123.1536721817       0.11  <-- CONV
        O_D=     95.0130477 O_OD=     14.7211380 O_TOT=    123.1536722 <-- SPRD
 Delta: O_D= -0.9675152E+01 O_OD=  0.1729190E+01 O_TOT= -0.7945962E+01 <-- DLTA
 ------------------------------------------------------------------------------
 Cycle:      5
  WF centre and spread    1  (  1.933488,  1.074014,  1.242163 )     3.45986869
  WF centre and spread    2  (  1.933491,  1.074060,  1.242272 )     3.45974221
  WF centre and spread    3  (  1.933489,  1.086982, -1.077825 )     5.98429078
  WF centre and spread    4  (  1.933486,  1.086977, -1.077785 )     5.98422067
  WF centre and spread    5  (  1.933493,  1.665697,  1.260651 )     2.43577461
  WF centre and spread    6  (  1.933473,  1.665713,  1.260665 )     2.43563886
  WF centre and spread    7  (  1.933486,  0.119314,  1.247314 )     3.11508483
  WF centre and spread    8  (  1.933487,  0.119330,  1.247318 )     3.11508464
  WF centre and spread    9  (  0.000003,  0.156132,  0.160666 )    18.84831050
  WF centre and spread   10  ( -0.000001,  0.156109,  0.160638 )    18.84809488
  WF centre and spread   11  ( -0.000000, -0.045957,  0.743372 )    13.26741377
  WF centre and spread   12  ( -0.000001, -0.045960,  0.743368 )    13.26711339
  WF centre and spread   13  ( -0.000005,  0.809011,  0.628695 )     9.15922772
  WF centre and spread   14  ( -0.000004,  0.809017,  0.628699 )     9.15922627
  WF centre and spread   15  ( -0.000000, -1.116558,  0.414619 )     9.53621477
  WF centre and spread   16  ( -0.000000, -1.116465,  0.414585 )     9.53634204
  Sum of centres and spreads ( 15.467884,  7.497413,  9.239415 )   131.61164865
 
      5     0.846E+01     4.5801044628      131.6116486463       0.11  <-- CONV
        O_D=     95.2746223 O_OD=     22.9175399 O_TOT=    131.6116486 <-- SPRD
 Delta: O_D=  0.2615745E+00 O_OD=  0.8196402E+01 O_TOT=  0.8457976E+01 <-- DLTA
 ------------------------------------------------------------------------------
 Cycle:      6
  WF centre and spread    1  (  1.933486,  1.239735,  1.478440 )     3.44017285
  WF centre and spread    2  (  1.933495,  1.239758,  1.478351 )     3.44017996
  WF centre and spread    3  (  1.933489,  1.066927, -0.685393 )     4.71351926
  WF centre and spread    4  (  1.933486,  1.066932, -0.685372 )     4.71353938
  WF centre and spread    5  (  1.933494,  1.664235,  1.167275 )     2.42724105
  WF centre and spread    6  (  1.933472,  1.664249,  1.167272 )     2.42714880
  WF centre and spread    7  (  1.933486, -0.161554,  1.248133 )     2.38872065
  WF centre and spread    8  (  1.933487, -0.161552,  1.248137 )     2.38863499
  WF centre and spread    9  (  0.000006,  0.169787, -0.195144 )    12.90170327
  WF centre and spread   10  ( -0.000003,  0.169762, -0.195152 )    12.90153340
  WF centre and spread   11  ( -0.000000, -0.091562,  0.307377 )    11.59796213
  WF centre and spread   12  ( -0.000001, -0.091556,  0.307459 )    11.59800009
  WF centre and spread   13  ( -0.000005,  0.831915,  0.580699 )     9.06507785
  WF centre and spread   14  ( -0.000004,  0.831913,  0.580697 )     9.06511348
  WF centre and spread   15  ( -0.000001, -1.585214,  0.558076 )     8.33523776
  WF centre and spread   16  (  0.000000, -1.585139,  0.558053 )     8.33532438
  Sum of centres and spreads ( 15.467887,  6.268637,  8.918908 )   109.73910930
 
      6    -0.219E+02    16.7312949217      109.7391093006       0.11  <-- CONV
        O_D=     73.7401326 O_OD=     22.5794902 O_TOT=    109.7391093 <-- SPRD
 Delta: O_D= -0.2153449E+02 O_OD= -0.3380497E+00 O_TOT= -0.2187254E+02 <-- DLTA
 ------------------------------------------------------------------------------
 Cycle:      7
  WF centre and spread    1  (  1.933477,  1.378736,  1.934533 )     3.23861787
  WF centre and spread    2  (  1.933506,  1.378793,  1.934318 )     3.23874996
  WF centre and spread    3  (  1.933488,  1.075928, -0.481994 )     4.02076298
  WF centre and spread    4  (  1.933486,  1.075961, -0.482011 )     4.02053845
  WF centre and spread    5  (  1.933499,  1.622225,  1.125019 )     2.46367348
  WF centre and spread    6  (  1.933471,  1.622262,  1.124991 )     2.46359509
  WF centre and spread    7  (  1.933487, -0.295129,  1.226862 )     2.39775773
  WF centre and spread    8  (  1.933486, -0.295127,  1.226845 )     2.39766088
  WF centre and spread    9  (  0.000007,  0.262914, -0.310799 )    10.11339347
  WF centre and spread   10  ( -0.000003,  0.262888, -0.310771 )    10.11337350
  WF centre and spread   11  (  0.000002, -0.176084, -0.580337 )     9.73319072
  WF centre and spread   12  (  0.000010, -0.176121, -0.580283 )     9.73326661
  WF centre and spread   13  ( -0.000007,  0.921541,  0.529014 )     8.90657897
  WF centre and spread   14  ( -0.000004,  0.921518,  0.529011 )     8.90666183
  WF centre and spread   15  ( -0.000001, -1.837954,  0.623629 )     7.91260377
  WF centre and spread   16  ( -0.000000, -1.837852,  0.623589 )     7.91282550
  Sum of centres and spreads ( 15.467903,  5.904498,  8.131617 )    97.57325082
 
      7    -0.122E+02     7.6971997577       97.5732508164       0.11  <-- CONV
        O_D=     61.2573415 O_OD=     22.8964228 O_TOT=     97.5732508 <-- SPRD
 Delta: O_D= -0.1248279E+02 O_OD=  0.3169326E+00 O_TOT= -0.1216586E+02 <-- DLTA
 ------------------------------------------------------------------------------
 Cycle:      8
  WF centre and spread    1  (  1.933478,  1.355065,  1.969984 )     3.18265724
  WF centre and spread    2  (  1.933505,  1.355189,  1.969778 )     3.18283715
  WF centre and spread    3  (  1.933488,  1.080695, -0.484577 )     3.93563953
  WF centre and spread    4  (  1.933486,  1.080731, -0.484591 )     3.93542097
  WF centre and spread    5  (  1.933499,  1.618267,  1.127063 )     2.47216362
  WF centre and spread    6  (  1.933471,  1.618302,  1.127032 )     2.47208773
  WF centre and spread    7  (  1.933487, -0.294051,  1.224220 )     2.41035040
  WF centre and spread    8  (  1.933486, -0.294059,  1.224203 )     2.41024440
  WF centre and spread    9  (  0.000006,  0.272349, -0.316697 )    10.04671140
  WF centre and spread   10  ( -0.000003,  0.272329, -0.316669 )    10.04669229
  WF centre and spread   11  (  0.000002, -0.161574, -0.583259 )     9.55752845
  WF centre and spread   12  (  0.000012, -0.161623, -0.583228 )     9.55759661
  WF centre and spread   13  ( -0.000008,  0.938386,  0.530470 )     8.81542849
  WF centre and spread   14  ( -0.000006,  0.938361,  0.530466 )     8.81551597
  WF centre and spread   15  ( -0.000000, -1.857730,  0.639582 )     7.82543432
  WF centre and spread   16  ( -0.000000, -1.857628,  0.639540 )     7.82566537
  Sum of centres and spreads ( 15.467905,  5.903009,  8.213316 )    96.49197394
 
      8    -0.108E+01     5.1396332528       96.4919739406       0.11  <-- CONV
        O_D=     60.0717716 O_OD=     23.0007159 O_TOT=     96.4919739 <-- SPRD
 Delta: O_D= -0.1185570E+01 O_OD=  0.1042931E+00 O_TOT= -0.1081277E+01 <-- DLTA
 ------------------------------------------------------------------------------
 Cycle:      9
  WF centre and spread    1  (  1.933477,  1.285827,  2.029139 )     3.02833310
  WF centre and spread    2  (  1.933504,  1.286109,  2.028938 )     3.02855042
  WF centre and spread    3  (  1.933489,  1.092519, -0.500658 )     3.70995745
  WF centre and spread    4  (  1.933487,  1.092563, -0.500661 )     3.70977347
  WF centre and spread    5  (  1.933500,  1.611310,  1.135358 )     2.49654014
  WF centre and spread    6  (  1.933472,  1.611339,  1.135317 )     2.49646680
  WF centre and spread    7  (  1.933487, -0.268165,  1.212951 )     2.45227162
  WF centre and spread    8  (  1.933486, -0.268239,  1.212945 )     2.45211106
  WF centre and spread    9  (  0.000006,  0.298088, -0.332287 )     9.91896795
  WF centre and spread   10  ( -0.000003,  0.298090, -0.332271 )     9.91895853
  WF centre and spread   11  (  0.000004, -0.083897, -0.553108 )     9.02119383
  WF centre and spread   12  (  0.000025, -0.084006, -0.553151 )     9.02112787
  WF centre and spread   13  ( -0.000009,  0.987713,  0.542318 )     8.49481100
  WF centre and spread   14  ( -0.000012,  0.987685,  0.542310 )     8.49490292
  WF centre and spread   15  ( -0.000000, -1.908504,  0.685209 )     7.57610961
  WF centre and spread   16  (  0.000000, -1.908401,  0.685161 )     7.57637336
  Sum of centres and spreads ( 15.467914,  6.030032,  8.437509 )    93.39644912
 
      9    -0.310E+01     5.1146295723       93.3964491201       0.11  <-- CONV
        O_D=     56.6870834 O_OD=     23.2898792 O_TOT=     93.3964491 <-- SPRD
 Delta: O_D= -0.3384688E+01 O_OD=  0.2891633E+00 O_TOT= -0.3095525E+01 <-- DLTA
 ------------------------------------------------------------------------------
 Cycle:     10
  WF centre and spread    1  (  0.966729,  0.660295,  1.697789 )     8.19559577
  WF centre and spread    2  (  0.966761,  0.660791,  1.697595 )     8.19617637
  WF centre and spread    3  (  1.933489,  1.102996, -0.532035 )     3.27743217
  WF centre and spread    4  (  1.933488,  1.103073, -0.532027 )     3.27739445
  WF centre and spread    5  (  1.933503,  1.609716,  1.152318 )     2.55840252
  WF centre and spread    6  (  1.933474,  1.609730,  1.152262 )     2.55831960
  WF centre and spread    7  (  1.933488, -0.147854,  1.161740 )     2.65406867
  WF centre and spread    8  (  1.933487, -0.148201,  1.161824 )     2.65336877
  WF centre and spread    9  (  0.000007,  0.360097, -0.393522 )     9.59925291
  WF centre and spread   10  ( -0.000004,  0.360160, -0.393537 )     9.59927816
  WF centre and spread   11  (  0.000003,  0.189316, -0.420994 )     8.51715806
  WF centre and spread   12  (  0.000019,  0.189285, -0.420964 )     8.51695638
  WF centre and spread   13  ( -0.000014,  1.136997,  0.608823 )     7.50613790
  WF centre and spread   14  ( -0.000024,  1.136969,  0.608813 )     7.50620758
  WF centre and spread   15  (  0.000000, -2.021176,  0.773878 )     7.08583688
  WF centre and spread   16  (  0.000000, -2.021069,  0.773810 )     7.08617103
  Sum of centres and spreads ( 13.534406,  5.781125,  8.095773 )    98.78775723
 
     10     0.539E+01     5.2144566029       98.7877572312       0.11  <-- CONV
        O_D=     61.4374329 O_OD=     23.9308379 O_TOT=     98.7877572 <-- SPRD
 Delta: O_D=  0.4750349E+01 O_OD=  0.6409587E+00 O_TOT=  0.5391308E+01 <-- DLTA
 ------------------------------------------------------------------------------
 Cycle:     11
  WF centre and spread    1  (  0.739184,  0.729514,  1.568740 )     7.37857980
  WF centre and spread    2  (  0.739243,  0.729189,  1.568617 )     7.37790700
  WF centre and spread    3  (  1.931410,  1.084565, -0.567932 )     3.08306713
  WF centre and spread    4  (  1.931407,  1.084674, -0.567916 )     3.08303978
  WF centre and spread    5  (  2.046513,  1.610377,  1.147885 )     2.62840172
  WF centre and spread    6  (  2.046463,  1.610403,  1.147830 )     2.62833159
  WF centre and spread    7  (  1.935851, -0.331064,  1.205104 )     2.42342519
  WF centre and spread    8  (  1.935858, -0.330896,  1.205051 )     2.42371700
  WF centre and spread    9  ( -0.005157,  0.341342, -0.456901 )     9.44661629
  WF centre and spread   10  ( -0.005169,  0.341582, -0.456854 )     9.44658679
  WF centre and spread   11  ( -0.007166, -0.036324, -0.654101 )     7.85898578
  WF centre and spread   12  ( -0.007165, -0.036276, -0.653950 )     7.85798575
  WF centre and spread   13  ( -0.032189,  1.238515,  0.689486 )     6.43844569
  WF centre and spread   14  ( -0.032251,  1.238512,  0.689493 )     6.43839952
  WF centre and spread   15  (  0.004075, -2.063604,  0.799781 )     6.84446350
  WF centre and spread   16  (  0.004074, -2.063555,  0.799707 )     6.84465658
  Sum of centres and spreads ( 13.224981,  5.146955,  7.464040 )    92.20260910
 
     11    -0.659E+01    11.5649851049       92.2026090979       0.12  <-- CONV
        O_D=     54.6726605 O_OD=     24.1104621 O_TOT=     92.2026091 <-- SPRD
 Delta: O_D= -0.6764772E+01 O_OD=  0.1796242E+00 O_TOT= -0.6585148E+01 <-- DLTA
 ------------------------------------------------------------------------------
 Cycle:     12
  WF centre and spread    1  (  0.366127,  0.544510,  1.651728 )     6.21202815
  WF centre and spread    2  (  0.365896,  0.544179,  1.651638 )     6.21194299
  WF centre and spread    3  (  1.931938,  1.057506, -0.647430 )     2.79135403
  WF centre and spread    4  (  1.931915,  1.057728, -0.647350 )     2.79149405
  WF centre and spread    5  (  1.204462,  1.061994,  0.744893 )     8.17729597
  WF centre and spread    6  (  1.204394,  1.062039,  0.744839 )     8.17708870
  WF centre and spread    7  (  1.938814, -0.313738,  1.179500 )     2.41911394
  WF centre and spread    8  (  1.938850, -0.313640,  1.179559 )     2.41964610
  WF centre and spread    9  ( -0.013244,  0.373392, -0.524949 )     8.95182951
  WF centre and spread   10  ( -0.013225,  0.373849, -0.524932 )     8.95167792
  WF centre and spread   11  ( -0.004219,  0.056683, -0.584571 )     7.10563382
  WF centre and spread   12  ( -0.004186,  0.056856, -0.584382 )     7.10387921
  WF centre and spread   13  ( -0.111404,  1.768423,  1.063230 )     4.43240543
  WF centre and spread   14  ( -0.111414,  1.768442,  1.063236 )     4.43235050
  WF centre and spread   15  (  0.008507, -2.153132,  0.868258 )     6.19421982
  WF centre and spread   16  (  0.008498, -2.153085,  0.868133 )     6.19465329
  Sum of centres and spreads ( 10.641710,  4.792007,  7.501400 )    92.56661343
 
     12     0.364E+00     9.3752097232       92.5666134331       0.12  <-- CONV
        O_D=     54.4662461 O_OD=     24.6808808 O_TOT=     92.5666134 <-- SPRD
 Delta: O_D= -0.2064144E+00 O_OD=  0.5704187E+00 O_TOT=  0.3640043E+00 <-- DLTA
 ------------------------------------------------------------------------------
 Cycle:     13
  WF centre and spread    1  ( -0.114259, -0.099945,  1.902905 )     5.54922259
  WF centre and spread    2  ( -0.114392, -0.100080,  1.903554 )     5.54848812
  WF centre and spread    3  (  1.969248,  0.938225, -0.734238 )     2.66129876
  WF centre and spread    4  (  1.969159,  0.938742, -0.734124 )     2.66124335
  WF centre and spread    5  (  1.051158,  1.133663,  0.828071 )     7.35006476
  WF centre and spread    6  (  1.051101,  1.133749,  0.828001 )     7.34976602
  WF centre and spread    7  (  1.946266, -0.298358,  1.119818 )     2.48305080
  WF centre and spread    8  (  1.946337, -0.298229,  1.119880 )     2.48368095
  WF centre and spread    9  ( -0.060225,  0.326831, -0.383640 )     8.46323866
  WF centre and spread   10  ( -0.060045,  0.327053, -0.384273 )     8.46112001
  WF centre and spread   11  ( -0.027670,  0.131871,  0.172852 )     5.95504714
  WF centre and spread   12  ( -0.027680,  0.132472,  0.172789 )     5.95516792
  WF centre and spread   13  ( -0.009106,  2.157181,  1.183710 )     3.31669977
  WF centre and spread   14  ( -0.009447,  2.157199,  1.183627 )     3.31651883
  WF centre and spread   15  ( -0.012885, -2.109814,  0.922077 )     4.96313962
  WF centre and spread   16  ( -0.013077, -2.109779,  0.922166 )     4.96346731
  Sum of centres and spreads (  9.484483,  4.360783, 10.023174 )    81.48121463
 
     13    -0.111E+02    10.7620992414       81.4812146327       0.12  <-- CONV
        O_D=     42.8191552 O_OD=     25.2425729 O_TOT=     81.4812146 <-- SPRD
 Delta: O_D= -0.1164709E+02 O_OD=  0.5616921E+00 O_TOT= -0.1108540E+02 <-- DLTA
 ------------------------------------------------------------------------------
 Cycle:     14
  WF centre and spread    1  ( -0.140484, -0.389660,  2.155540 )     4.60575407
  WF centre and spread    2  ( -0.140415, -0.389983,  2.155119 )     4.60661850
  WF centre and spread    3  (  1.976432,  0.812113, -0.680335 )     2.97462567
  WF centre and spread    4  (  1.976339,  0.812880, -0.680284 )     2.97452514
  WF centre and spread    5  (  0.627834,  1.257022,  1.036694 )     7.42976238
  WF centre and spread    6  (  0.627958,  1.257074,  1.036677 )     7.43010428
  WF centre and spread    7  (  1.945046, -0.291275,  1.075476 )     2.55931261
  WF centre and spread    8  (  1.945136, -0.291208,  1.075524 )     2.55971505
  WF centre and spread    9  ( -0.172707,  0.318774, -0.429046 )     8.29653513
  WF centre and spread   10  ( -0.172269,  0.318795, -0.429525 )     8.29334818
  WF centre and spread   11  ( -0.093624,  0.165985,  0.726067 )     4.98654492
  WF centre and spread   12  ( -0.093193,  0.166693,  0.725393 )     4.98794367
  WF centre and spread   13  ( -0.023816,  2.216982,  1.101632 )     2.90454303
  WF centre and spread   14  ( -0.024160,  2.217039,  1.101501 )     2.90471277
  WF centre and spread   15  (  0.023261, -2.069620,  1.069829 )     4.55245268
  WF centre and spread   16  (  0.022860, -2.069767,  1.068319 )     4.55547288
  Sum of centres and spreads (  8.284197,  4.041845, 12.108582 )    76.62197099
 
     14    -0.486E+01    10.7932104458       76.6219709868       0.12  <-- CONV
        O_D=     37.7733811 O_OD=     25.4291034 O_TOT=     76.6219710 <-- SPRD
 Delta: O_D= -0.5045774E+01 O_OD=  0.1865305E+00 O_TOT= -0.4859244E+01 <-- DLTA
 ------------------------------------------------------------------------------
 Cycle:     15
  WF centre and spread    1  ( -0.333042, -0.545226,  1.968620 )     4.23023993
  WF centre and spread    2  ( -0.329359, -0.543579,  1.969821 )     4.22526470
  WF centre and spread    3  (  1.968755,  0.644818, -0.596938 )     3.29399433
  WF centre and spread    4  (  1.968729,  0.646158, -0.596879 )     3.29446040
  WF centre and spread    5  (  0.403134,  1.388558,  1.047776 )     7.04918302
  WF centre and spread    6  (  0.403438,  1.388692,  1.047547 )     7.04907537
  WF centre and spread    7  (  1.942097, -0.294652,  1.016602 )     2.53217337
  WF centre and spread    8  (  1.942119, -0.294730,  1.016830 )     2.53204603
  WF centre and spread    9  ( -0.411663,  0.423466, -0.572373 )     7.67816883
  WF centre and spread   10  ( -0.410484,  0.423762, -0.572394 )     7.67108104
  WF centre and spread   11  ( -0.288504,  0.047455,  1.061556 )     3.71186167
  WF centre and spread   12  ( -0.288129,  0.048952,  1.060279 )     3.71310669
  WF centre and spread   13  (  0.063307,  2.233868,  1.097722 )     2.64572912
  WF centre and spread   14  (  0.062991,  2.233978,  1.097593 )     2.64591777
  WF centre and spread   15  (  0.115960, -2.048835,  1.391309 )     3.96461840
  WF centre and spread   16  (  0.115286, -2.049008,  1.390665 )     3.96417573
  Sum of centres and spreads (  6.924635,  3.703676, 12.827737 )    70.20109642
 
     15    -0.642E+01     8.9839220414       70.2010964245       0.12  <-- CONV
        O_D=     31.1643386 O_OD=     25.6172714 O_TOT=     70.2010964 <-- SPRD
 Delta: O_D= -0.6609043E+01 O_OD=  0.1881680E+00 O_TOT= -0.6420875E+01 <-- DLTA
 ------------------------------------------------------------------------------
 Cycle:     16
  WF centre and spread    1  ( -0.440676, -0.396490,  1.941604 )     3.93569786
  WF centre and spread    2  ( -0.439266, -0.396190,  1.941200 )     3.93663190
  WF centre and spread    3  (  1.960727,  0.359906, -0.548216 )     3.13294541
  WF centre and spread    4  (  1.960789,  0.361676, -0.548197 )     3.13403068
  WF centre and spread    5  (  0.346230,  1.574921,  0.861461 )     6.80610603
  WF centre and spread    6  (  0.346860,  1.575449,  0.860961 )     6.80623178
  WF centre and spread    7  (  1.942662, -0.300652,  0.982941 )     2.50412974
  WF centre and spread    8  (  1.942637, -0.300990,  0.983199 )     2.50355369
  WF centre and spread    9  ( -0.179639,  0.692763, -0.592294 )     6.37859642
  WF centre and spread   10  ( -0.175713,  0.694855, -0.591113 )     6.37041187
  WF centre and spread   11  (  0.214085,  0.290434,  1.321299 )     4.17087586
  WF centre and spread   12  (  0.214559,  0.292549,  1.320267 )     4.17529581
  WF centre and spread   13  (  0.173573,  2.233642,  1.143220 )     2.51209619
  WF centre and spread   14  (  0.173282,  2.233899,  1.143021 )     2.51228572
  WF centre and spread   15  (  0.150050, -2.046587,  1.480977 )     3.82454977
  WF centre and spread   16  (  0.149174, -2.046763,  1.480389 )     3.82404486
  Sum of centres and spreads (  8.339335,  4.822423, 13.180720 )    66.52748360
 
     16    -0.367E+01    12.3255908612       66.5274835970       0.12  <-- CONV
        O_D=     27.2090956 O_OD=     25.8989016 O_TOT=     66.5274836 <-- SPRD
 Delta: O_D= -0.3955243E+01 O_OD=  0.2816302E+00 O_TOT= -0.3673613E+01 <-- DLTA
 ------------------------------------------------------------------------------
 Cycle:     17
  WF centre and spread    1  ( -0.460911, -0.380535,  1.956500 )     4.11052268
  WF centre and spread    2  ( -0.456178, -0.381415,  1.955579 )     4.10517839
  WF centre and spread    3  (  1.879807,  0.294338, -0.638981 )     2.89149463
  WF centre and spread    4  (  1.880178,  0.294573, -0.638182 )     2.88801886
  WF centre and spread    5  (  0.343099,  1.581127,  1.120272 )     6.41011706
  WF centre and spread    6  (  0.341044,  1.580093,  1.118991 )     6.40670669
  WF centre and spread    7  (  1.957969, -0.352585,  0.980122 )     2.47203349
  WF centre and spread    8  (  1.958087, -0.350870,  0.980283 )     2.47309875
  WF centre and spread    9  (  0.085608,  0.722293, -0.368920 )     6.02647248
  WF centre and spread   10  (  0.100314,  0.732072, -0.365554 )     6.07069288
  WF centre and spread   11  (  0.166377,  0.303104,  1.040907 )     3.14170810
  WF centre and spread   12  (  0.163793,  0.303531,  1.040908 )     3.13238893
  WF centre and spread   13  (  0.209803,  2.220750,  1.162851 )     2.41948936
  WF centre and spread   14  (  0.209334,  2.220962,  1.162810 )     2.41944977
  WF centre and spread   15  (  0.082772, -1.763421,  1.611201 )     3.87434793
  WF centre and spread   16  (  0.084035, -1.765134,  1.609742 )     3.86946323
  Sum of centres and spreads (  8.545131,  5.258883, 13.728528 )    62.71118322
 
     17    -0.382E+01    30.2195800373       62.7111832197       0.12  <-- CONV
        O_D=     23.8156575 O_OD=     25.4760392 O_TOT=     62.7111832 <-- SPRD
 Delta: O_D= -0.3393438E+01 O_OD= -0.4228623E+00 O_TOT= -0.3816300E+01 <-- DLTA
 ------------------------------------------------------------------------------
 Cycle:     18
  WF centre and spread    1  ( -0.490228, -0.464348,  1.964018 )     3.59610470
  WF centre and spread    2  ( -0.482929, -0.465107,  1.964131 )     3.61349957
  WF centre and spread    3  (  1.930770,  0.153578, -0.598920 )     2.71509387
  WF centre and spread    4  (  1.933171,  0.161470, -0.598166 )     2.71847374
  WF centre and spread    5  (  0.383474,  1.661788,  1.044707 )     6.00829966
  WF centre and spread    6  (  0.393918,  1.668566,  1.053390 )     6.03693680
  WF centre and spread    7  (  1.943172, -0.407470,  0.998163 )     2.38147089
  WF centre and spread    8  (  1.942867, -0.416580,  1.002286 )     2.37712096
  WF centre and spread    9  ( -0.058378,  0.304253, -0.333630 )     5.16656372
  WF centre and spread   10  ( -0.059503,  0.298831, -0.318852 )     5.13829685
  WF centre and spread   11  (  0.190835,  0.364289,  1.025368 )     2.97636589
  WF centre and spread   12  (  0.186746,  0.362334,  1.027662 )     2.95988947
  WF centre and spread   13  (  0.241253,  2.199275,  1.170705 )     2.39593937
  WF centre and spread   14  (  0.242465,  2.199115,  1.169504 )     2.39657284
  WF centre and spread   15  (  0.105696, -1.693533,  1.592733 )     3.50455819
  WF centre and spread   16  (  0.107603, -1.688252,  1.592042 )     3.51133027
  Sum of centres and spreads (  8.510933,  4.238211, 13.755141 )    57.49651679
 
     18    -0.521E+01    10.6447342926       57.4965167946       0.12  <-- CONV
        O_D=     18.6977284 O_OD=     25.3793019 O_TOT=     57.4965168 <-- SPRD
 Delta: O_D= -0.5117929E+01 O_OD= -0.9673733E-01 O_TOT= -0.5214666E+01 <-- DLTA
 ------------------------------------------------------------------------------
 Cycle:     19
  WF centre and spread    1  ( -0.795402, -0.573666,  1.487782 )     4.93363823
  WF centre and spread    2  ( -0.798087, -0.573768,  1.491804 )     5.01021841
  WF centre and spread    3  (  1.880521, -0.094026, -0.604528 )     2.47477597
  WF centre and spread    4  (  1.886679, -0.081170, -0.605690 )     2.44737244
  WF centre and spread    5  (  0.308010,  1.848771,  0.970568 )     4.93150174
  WF centre and spread    6  (  0.325295,  1.858392,  0.987154 )     4.98461478
  WF centre and spread    7  (  1.926461, -0.429155,  0.987207 )     2.27619112
  WF centre and spread    8  (  1.929415, -0.447305,  1.003082 )     2.28513103
  WF centre and spread    9  ( -0.092402,  0.227348, -0.318948 )     3.84337310
  WF centre and spread   10  ( -0.087199,  0.192242, -0.248368 )     3.85525148
  WF centre and spread   11  (  0.175735,  0.320042,  1.130132 )     2.79209445
  WF centre and spread   12  (  0.173600,  0.310886,  1.125004 )     2.80377722
  WF centre and spread   13  (  0.296121,  2.147878,  1.151443 )     2.43127793
  WF centre and spread   14  (  0.296682,  2.149210,  1.149255 )     2.43721462
  WF centre and spread   15  (  0.383069, -1.590513,  1.539269 )     2.85986235
  WF centre and spread   16  (  0.371872, -1.584741,  1.526430 )     2.86680786
  Sum of centres and spreads (  8.180368,  3.680426, 12.771597 )    53.23310273
 
     19    -0.426E+01     6.3105052397       53.2331027316       0.12  <-- CONV
        O_D=     15.0220853 O_OD=     24.7915309 O_TOT=     53.2331027 <-- SPRD
 Delta: O_D= -0.3675643E+01 O_OD= -0.5877710E+00 O_TOT= -0.4263414E+01 <-- DLTA
 ------------------------------------------------------------------------------
 Cycle:     20
  WF centre and spread    1  ( -0.991596, -0.694143,  1.554752 )     4.21602709
  WF centre and spread    2  ( -1.027765, -0.686270,  1.555858 )     4.30074573
  WF centre and spread    3  (  1.851467, -0.198737, -0.614843 )     2.31482501
  WF centre and spread    4  (  1.854832, -0.187982, -0.615841 )     2.30985579
  WF centre and spread    5  (  0.234946,  1.885836,  0.883178 )     4.05563890
  WF centre and spread    6  (  0.261874,  1.904191,  0.940802 )     4.10589581
  WF centre and spread    7  (  1.903933, -0.443670,  0.813027 )     2.25914983
  WF centre and spread    8  (  1.908541, -0.462698,  0.859327 )     2.23616138
  WF centre and spread    9  ( -0.047922, -0.139961, -0.220756 )     3.17042946
  WF centre and spread   10  ( -0.007656, -0.148595, -0.173118 )     3.27209559
  WF centre and spread   11  (  0.196988,  0.135102,  1.260786 )     2.66740124
  WF centre and spread   12  (  0.192099,  0.031484,  1.286277 )     2.81798887
  WF centre and spread   13  (  0.348071,  2.104836,  1.132991 )     2.49731723
  WF centre and spread   14  (  0.346979,  2.108925,  1.133587 )     2.50329199
  WF centre and spread   15  (  0.484779, -1.585943,  1.406302 )     2.86457598
  WF centre and spread   16  (  0.468528, -1.587292,  1.375386 )     2.89648802
  Sum of centres and spreads (  7.978097,  2.035083, 12.577715 )    48.48788792
 
     20    -0.475E+01     9.4440445645       48.4878879216       0.13  <-- CONV
        O_D=     10.7527198 O_OD=     24.3156816 O_TOT=     48.4878879 <-- SPRD
 Delta: O_D= -0.4269366E+01 O_OD= -0.4758493E+00 O_TOT= -0.4745215E+01 <-- DLTA
 ------------------------------------------------------------------------------
 Cycle:     21
  WF centre and spread    1  ( -1.162666, -0.820418,  1.568857 )     4.31194587
  WF centre and spread    2  ( -1.242716, -0.828878,  1.549319 )     4.14819262
  WF centre and spread    3  (  1.840006, -0.256788, -0.615450 )     2.27732663
  WF centre and spread    4  (  1.840747, -0.263084, -0.611229 )     2.30185599
  WF centre and spread    5  (  0.259055,  1.930207,  0.780480 )     3.25713233
  WF centre and spread    6  (  0.299587,  1.959401,  0.873620 )     3.24440297
  WF centre and spread    7  (  1.888763, -0.481577,  0.713177 )     2.48883719
  WF centre and spread    8  (  1.891850, -0.485011,  0.718436 )     2.45506231
  WF centre and spread    9  ( -0.070575, -0.328571, -0.172394 )     3.00398660
  WF centre and spread   10  ( -0.069439, -0.339588, -0.093277 )     2.98366641
  WF centre and spread   11  (  0.200336,  0.007987,  1.374024 )     2.56460791
  WF centre and spread   12  (  0.194341,  0.035462,  1.346845 )     2.46004447
  WF centre and spread   13  (  0.413122,  2.059807,  1.121704 )     2.60574998
  WF centre and spread   14  (  0.395935,  2.075408,  1.131650 )     2.59361072
  WF centre and spread   15  (  0.590033, -1.573234,  1.297969 )     2.94976815
  WF centre and spread   16  (  0.582320, -1.586948,  1.277154 )     2.99079349
  Sum of centres and spreads (  7.850700,  1.104173, 12.260885 )    46.63698364
 
     21    -0.185E+01    10.1221268794       46.6369836417       0.13  <-- CONV
        O_D=      9.2047569 O_OD=     24.0127403 O_TOT=     46.6369836 <-- SPRD
 Delta: O_D= -0.1547963E+01 O_OD= -0.3029414E+00 O_TOT= -0.1850904E+01 <-- DLTA
 ------------------------------------------------------------------------------
 Cycle:     22
  WF centre and spread    1  ( -1.372313, -1.010282,  1.500978 )     3.87241178
  WF centre and spread    2  ( -1.502625, -1.020285,  1.501091 )     3.83169758
  WF centre and spread    3  (  1.842180, -0.291719, -0.615199 )     2.31633658
  WF centre and spread    4  (  1.833981, -0.314287, -0.611487 )     2.34687510
  WF centre and spread    5  (  0.294214,  1.962932,  0.731797 )     2.90754981
  WF centre and spread    6  (  0.313108,  1.981229,  0.790783 )     2.88810394
  WF centre and spread    7  (  1.888289, -0.466329,  0.790598 )     2.30448087
  WF centre and spread    8  (  1.891250, -0.487455,  0.792535 )     2.40370714
  WF centre and spread    9  ( -0.167717, -0.465730, -0.190913 )     2.73170079
  WF centre and spread   10  ( -0.167636, -0.474323, -0.107046 )     2.69071879
  WF centre and spread   11  (  0.202098, -0.016300,  1.457028 )     2.40698520
  WF centre and spread   12  (  0.190309, -0.044747,  1.436621 )     2.37710847
  WF centre and spread   13  (  0.365898,  2.108920,  1.216235 )     2.74285978
  WF centre and spread   14  (  0.317097,  2.140013,  1.247704 )     2.84853333
  WF centre and spread   15  (  0.778075, -1.487439,  1.407510 )     3.16639522
  WF centre and spread   16  (  0.795871, -1.519907,  1.425631 )     3.17033463
  Sum of centres and spreads (  7.502080,  0.594290, 12.773866 )    45.00579901
 
     22    -0.163E+01     9.1548365232       45.0057990093       0.13  <-- CONV
        O_D=      7.6811341 O_OD=     23.9051784 O_TOT=     45.0057990 <-- SPRD
 Delta: O_D= -0.1523623E+01 O_OD= -0.1075618E+00 O_TOT= -0.1631185E+01 <-- DLTA
 ------------------------------------------------------------------------------
 Cycle:     23
  WF centre and spread    1  ( -1.447132, -1.013209,  1.502252 )     3.68142158
  WF centre and spread    2  ( -1.519287, -1.027341,  1.508516 )     3.64801310
  WF centre and spread    3  (  1.819933, -0.335683, -0.615453 )     2.24570763
  WF centre and spread    4  (  1.811714, -0.353689, -0.611497 )     2.27400334
  WF centre and spread    5  (  0.326196,  1.965735,  0.755705 )     2.80872605
  WF centre and spread    6  (  0.336748,  1.984446,  0.820960 )     2.81285155
  WF centre and spread    7  (  1.894339, -0.446213,  0.854241 )     2.19350462
  WF centre and spread    8  (  1.897173, -0.446928,  0.867015 )     2.21657388
  WF centre and spread    9  ( -0.196569, -0.486279, -0.224421 )     2.65035730
  WF centre and spread   10  ( -0.168868, -0.486621, -0.157886 )     2.63940460
  WF centre and spread   11  (  0.196683, -0.028166,  1.464873 )     2.37012434
  WF centre and spread   12  (  0.186199, -0.048253,  1.444618 )     2.33754570
  WF centre and spread   13  (  0.435474,  2.098284,  1.266351 )     2.69763221
  WF centre and spread   14  (  0.406513,  2.142521,  1.294115 )     2.66748030
  WF centre and spread   15  (  0.770100, -1.411035,  1.474433 )     2.80846951
  WF centre and spread   16  (  0.772075, -1.413800,  1.476330 )     2.85169076
  Sum of centres and spreads (  7.521290,  0.693769, 13.120152 )    42.90350646
 
     23    -0.210E+01     8.5644078703       42.9035064648       0.13  <-- CONV
        O_D=      5.8552531 O_OD=     23.6287669 O_TOT=     42.9035065 <-- SPRD
 Delta: O_D= -0.1825881E+01 O_OD= -0.2764116E+00 O_TOT= -0.2102293E+01 <-- DLTA
 ------------------------------------------------------------------------------
 Cycle:     24
  WF centre and spread    1  ( -1.548864, -1.041972,  1.515344 )     3.40963045
  WF centre and spread    2  ( -1.553339, -1.043967,  1.530529 )     3.35189959
  WF centre and spread    3  (  1.790022, -0.404689, -0.613591 )     2.13679798
  WF centre and spread    4  (  1.779687, -0.422051, -0.609728 )     2.15504111
  WF centre and spread    5  (  0.363936,  1.972599,  0.794883 )     2.66780663
  WF centre and spread    6  (  0.372777,  1.991217,  0.860433 )     2.70942392
  WF centre and spread    7  (  1.908867, -0.437207,  0.937038 )     2.13781594
  WF centre and spread    8  (  1.912033, -0.440908,  0.948016 )     2.12339161
  WF centre and spread    9  ( -0.261220, -0.538150, -0.271711 )     2.55141557
  WF centre and spread   10  ( -0.219285, -0.527759, -0.222426 )     2.54982844
  WF centre and spread   11  (  0.189927, -0.043621,  1.486030 )     2.28854060
  WF centre and spread   12  (  0.181161, -0.050493,  1.474281 )     2.25412856
  WF centre and spread   13  (  0.493137,  2.114195,  1.276681 )     2.52596166
  WF centre and spread   14  (  0.471242,  2.160701,  1.294890 )     2.53134765
  WF centre and spread   15  (  0.766160, -1.332347,  1.583756 )     2.63031576
  WF centre and spread   16  (  0.820931, -1.362424,  1.570244 )     2.70733716
  Sum of centres and spreads (  7.467175,  0.593124, 13.554669 )    40.73068264
 
     24    -0.217E+01     4.4398530592       40.7306826399       0.13  <-- CONV
        O_D=      4.3146810 O_OD=     22.9965152 O_TOT=     40.7306826 <-- SPRD
 Delta: O_D= -0.1540572E+01 O_OD= -0.6322517E+00 O_TOT= -0.2172824E+01 <-- DLTA
 ------------------------------------------------------------------------------
 Cycle:     25
  WF centre and spread    1  ( -1.679518, -1.114160,  1.693631 )     2.65056022
  WF centre and spread    2  ( -1.698876, -1.109715,  1.795193 )     2.52288023
  WF centre and spread    3  (  1.740087, -0.501814, -0.624011 )     1.93370153
  WF centre and spread    4  (  1.733598, -0.528773, -0.618235 )     1.95816810
  WF centre and spread    5  (  0.398345,  1.988763,  0.850822 )     2.39204339
  WF centre and spread    6  (  0.411093,  2.008646,  0.910714 )     2.44963825
  WF centre and spread    7  (  1.937250, -0.477749,  1.071509 )     2.14698772
  WF centre and spread    8  (  1.933933, -0.460047,  1.084095 )     2.09745545
  WF centre and spread    9  ( -0.466013, -0.685066, -0.375441 )     2.44400217
  WF centre and spread   10  ( -0.418194, -0.679610, -0.346104 )     2.46150394
  WF centre and spread   11  (  0.209444, -0.066460,  1.539582 )     2.08311866
  WF centre and spread   12  (  0.201712, -0.077642,  1.535257 )     2.09410693
  WF centre and spread   13  (  0.623242,  2.196402,  1.476132 )     2.36198480
  WF centre and spread   14  (  0.634166,  2.210732,  1.453303 )     2.43027724
  WF centre and spread   15  (  0.846735, -1.257593,  1.617843 )     2.48891611
  WF centre and spread   16  (  0.883512, -1.280764,  1.591144 )     2.47375886
  Sum of centres and spreads (  7.290516,  0.165150, 14.655433 )    36.98910360
 
     25    -0.374E+01     3.0729051874       36.9891036008       0.13  <-- CONV
        O_D=      2.3409054 O_OD=     21.2287117 O_TOT=     36.9891036 <-- SPRD
 Delta: O_D= -0.1973776E+01 O_OD= -0.1767803E+01 O_TOT= -0.3741579E+01 <-- DLTA
 ------------------------------------------------------------------------------
 Cycle:     26
  WF centre and spread    1  ( -1.782223, -1.124990,  1.844590 )     2.44483297
  WF centre and spread    2  ( -1.775554, -1.131717,  1.872907 )     2.41587572
  WF centre and spread    3  (  1.718843, -0.520391, -0.645198 )     1.78408222
  WF centre and spread    4  (  1.722264, -0.532751, -0.644199 )     1.79317207
  WF centre and spread    5  (  0.361096,  2.008096,  0.859064 )     2.23055884
  WF centre and spread    6  (  0.400984,  2.044985,  0.923444 )     2.26770429
  WF centre and spread    7  (  1.931735, -0.464908,  1.108223 )     1.89038007
  WF centre and spread    8  (  1.921868, -0.460900,  1.116841 )     1.91325128
  WF centre and spread    9  ( -0.604535, -0.790336, -0.405002 )     2.40810113
  WF centre and spread   10  ( -0.573504, -0.797145, -0.378318 )     2.41859074
  WF centre and spread   11  (  0.237698, -0.094433,  1.566997 )     1.99814550
  WF centre and spread   12  (  0.235910, -0.109228,  1.564552 )     2.02721541
  WF centre and spread   13  (  0.683753,  2.260902,  1.620994 )     2.32815528
  WF centre and spread   14  (  0.690802,  2.253896,  1.583666 )     2.38522484
  WF centre and spread   15  (  0.931775, -1.252355,  1.602087 )     2.41278274
  WF centre and spread   16  (  0.938866, -1.283019,  1.565896 )     2.40513053
  Sum of centres and spreads (  7.039778,  0.005706, 15.156543 )    35.12320362
 
     26    -0.187E+01     3.0338088469       35.1232036219       0.13  <-- CONV
        O_D=      1.7476911 O_OD=     19.9560260 O_TOT=     35.1232036 <-- SPRD
 Delta: O_D= -0.5932143E+00 O_OD= -0.1272686E+01 O_TOT= -0.1865900E+01 <-- DLTA
 ------------------------------------------------------------------------------
 Cycle:     27
  WF centre and spread    1  ( -1.825644, -1.123259,  1.884740 )     2.35572112
  WF centre and spread    2  ( -1.808252, -1.141203,  1.896924 )     2.32364645
  WF centre and spread    3  (  1.709263, -0.503202, -0.666931 )     1.67484080
  WF centre and spread    4  (  1.724743, -0.503817, -0.664535 )     1.68562355
  WF centre and spread    5  (  0.320665,  2.013105,  0.844393 )     2.11871021
  WF centre and spread    6  (  0.370326,  2.061057,  0.916719 )     2.18960088
  WF centre and spread    7  (  1.924125, -0.472242,  1.140395 )     1.77455993
  WF centre and spread    8  (  1.906410, -0.471670,  1.143087 )     1.79757549
  WF centre and spread    9  ( -0.681434, -0.891113, -0.409508 )     2.36276750
  WF centre and spread   10  ( -0.630750, -0.893864, -0.392066 )     2.38459432
  WF centre and spread   11  (  0.255451, -0.112874,  1.597267 )     1.93980731
  WF centre and spread   12  (  0.260858, -0.123623,  1.593001 )     1.96580791
  WF centre and spread   13  (  0.683234,  2.291906,  1.703553 )     2.28959152
  WF centre and spread   14  (  0.748874,  2.341291,  1.714595 )     2.37491279
  WF centre and spread   15  (  0.992224, -1.261528,  1.584983 )     2.37102455
  WF centre and spread   16  (  0.962385, -1.285622,  1.559104 )     2.35017013
  Sum of centres and spreads (  6.912478, -0.076657, 15.445720 )    33.95895446
 
     27    -0.116E+01     2.5500465026       33.9589544578       0.13  <-- CONV
        O_D=      1.5732354 O_OD=     18.9662325 O_TOT=     33.9589545 <-- SPRD
 Delta: O_D= -0.1744556E+00 O_OD= -0.9897935E+00 O_TOT= -0.1164249E+01 <-- DLTA
 ------------------------------------------------------------------------------
 Cycle:     28
  WF centre and spread    1  ( -1.869278, -1.102204,  1.934431 )     2.20020336
  WF centre and spread    2  ( -1.871605, -1.106896,  1.960414 )     2.19877391
  WF centre and spread    3  (  1.689167, -0.470391, -0.696196 )     1.50363671
  WF centre and spread    4  (  1.714075, -0.464202, -0.691917 )     1.54142730
  WF centre and spread    5  (  0.251575,  1.982225,  0.810421 )     1.98541392
  WF centre and spread    6  (  0.272263,  2.025947,  0.894418 )     2.12976760
  WF centre and spread    7  (  1.915912, -0.489733,  1.202359 )     1.58576966
  WF centre and spread    8  (  1.890632, -0.492914,  1.195242 )     1.61417233
  WF centre and spread    9  ( -0.792058, -1.006771, -0.437017 )     2.29526585
  WF centre and spread   10  ( -0.649544, -1.028061, -0.445164 )     2.31502991
  WF centre and spread   11  (  0.276222, -0.126975,  1.648174 )     1.86233793
  WF centre and spread   12  (  0.280838, -0.123358,  1.640324 )     1.87582736
  WF centre and spread   13  (  0.588162,  2.302391,  1.778324 )     2.21145698
  WF centre and spread   14  (  0.686202,  2.331937,  1.804630 )     2.26118668
  WF centre and spread   15  (  0.969991, -1.232556,  1.598228 )     2.32200473
  WF centre and spread   16  (  0.961805, -1.283803,  1.554280 )     2.32411956
  Sum of centres and spreads (  6.314360, -0.285366, 15.750951 )    32.22639378
 
     28    -0.173E+01     2.3217915207       32.2263937818       0.13  <-- CONV
        O_D=      1.4624542 O_OD=     17.3444531 O_TOT=     32.2263938 <-- SPRD
 Delta: O_D= -0.1107812E+00 O_OD= -0.1621779E+01 O_TOT= -0.1732561E+01 <-- DLTA
 ------------------------------------------------------------------------------
 Cycle:     29
  WF centre and spread    1  ( -1.894139, -1.085854,  1.965998 )     2.13226732
  WF centre and spread    2  ( -1.886621, -1.100603,  1.982996 )     2.13498550
  WF centre and spread    3  (  1.682129, -0.476242, -0.695657 )     1.46187520
  WF centre and spread    4  (  1.702647, -0.470448, -0.692929 )     1.49471971
  WF centre and spread    5  (  0.232659,  1.958122,  0.800860 )     1.94522713
  WF centre and spread    6  (  0.255057,  2.004369,  0.881460 )     2.09522437
  WF centre and spread    7  (  1.916697, -0.490623,  1.210821 )     1.55080564
  WF centre and spread    8  (  1.894808, -0.493486,  1.201349 )     1.57754716
  WF centre and spread    9  ( -0.869044, -0.988648, -0.441120 )     2.18416546
  WF centre and spread   10  ( -0.758710, -1.002677, -0.440347 )     2.22017308
  WF centre and spread   11  (  0.267362, -0.121834,  1.648228 )     1.79532674
  WF centre and spread   12  (  0.277658, -0.119623,  1.640966 )     1.81927441
  WF centre and spread   13  (  0.518316,  2.257593,  1.767252 )     2.28321544
  WF centre and spread   14  (  0.611825,  2.281946,  1.774489 )     2.20792404
  WF centre and spread   15  (  0.994887, -1.244250,  1.587804 )     2.21664170
  WF centre and spread   16  (  0.945852, -1.258953,  1.578090 )     2.22520789
  Sum of centres and spreads (  5.891382, -0.351211, 15.770261 )    31.34458080
 
     29    -0.882E+00     2.5830641714       31.3445808001       0.13  <-- CONV
        O_D=      1.2554453 O_OD=     16.6696490 O_TOT=     31.3445808 <-- SPRD
 Delta: O_D= -0.2070089E+00 O_OD= -0.6748041E+00 O_TOT= -0.8818130E+00 <-- DLTA
 ------------------------------------------------------------------------------
 Cycle:     30
  WF centre and spread    1  ( -1.936721, -1.064858,  2.048933 )     2.01462370
  WF centre and spread    2  ( -1.923425, -1.085207,  2.044273 )     2.00345291
  WF centre and spread    3  (  1.665295, -0.481617, -0.698037 )     1.37048039
  WF centre and spread    4  (  1.678607, -0.475819, -0.696999 )     1.39736702
  WF centre and spread    5  (  0.176614,  1.910299,  0.794290 )     1.88075692
  WF centre and spread    6  (  0.216592,  1.952358,  0.857030 )     2.00319952
  WF centre and spread    7  (  1.918163, -0.489436,  1.232221 )     1.47415053
  WF centre and spread    8  (  1.902321, -0.490712,  1.216198 )     1.50419960
  WF centre and spread    9  ( -0.969282, -0.968981, -0.457130 )     2.03409630
  WF centre and spread   10  ( -0.891190, -0.980669, -0.445857 )     2.10993347
  WF centre and spread   11  (  0.249915, -0.109620,  1.648918 )     1.66411758
  WF centre and spread   12  (  0.268084, -0.110148,  1.643634 )     1.69632098
  WF centre and spread   13  (  0.466174,  2.202026,  1.715755 )     2.16741134
  WF centre and spread   14  (  0.569008,  2.258848,  1.741150 )     2.09322478
  WF centre and spread   15  (  0.892072, -1.214224,  1.649908 )     2.17169519
  WF centre and spread   16  (  0.905430, -1.220757,  1.634119 )     2.21009120
  Sum of centres and spreads (  5.187660, -0.368517, 15.928405 )    29.79512143
 
     30    -0.155E+01     2.3490391223       29.7951214304       0.14  <-- CONV
        O_D=      1.2154462 O_OD=     15.1601887 O_TOT=     29.7951214 <-- SPRD
 Delta: O_D= -0.3999908E-01 O_OD= -0.1509460E+01 O_TOT= -0.1549459E+01 <-- DLTA
 ------------------------------------------------------------------------------
 Cycle:     31
  WF centre and spread    1  ( -1.987036, -1.057535,  2.203662 )     1.81258296
  WF centre and spread    2  ( -1.996928, -1.068839,  2.203785 )     1.84572751
  WF centre and spread    3  (  1.613560, -0.504360, -0.704172 )     1.27994601
  WF centre and spread    4  (  1.621256, -0.491302, -0.704226 )     1.28705471
  WF centre and spread    5  (  0.079018,  1.837197,  0.846342 )     1.71885987
  WF centre and spread    6  (  0.132164,  1.866773,  0.890031 )     1.79010196
  WF centre and spread    7  (  1.918403, -0.461648,  1.263781 )     1.36396912
  WF centre and spread    8  (  1.906858, -0.467360,  1.247200 )     1.38052196
  WF centre and spread    9  ( -1.128827, -0.929875, -0.482521 )     1.81028854
  WF centre and spread   10  ( -1.054326, -0.945363, -0.467142 )     1.92050542
  WF centre and spread   11  (  0.201397, -0.087312,  1.645114 )     1.45672262
  WF centre and spread   12  (  0.226040, -0.092916,  1.643910 )     1.48713302
  WF centre and spread   13  (  0.436246,  2.186146,  1.675777 )     2.00207355
  WF centre and spread   14  (  0.390049,  2.215659,  1.693366 )     2.25918183
  WF centre and spread   15  (  0.667175, -1.140043,  1.860083 )     2.17668455
  WF centre and spread   16  (  0.763838, -1.176584,  1.793925 )     2.14527737
  Sum of centres and spreads (  3.788888, -0.317365, 16.608917 )    27.73663099
 
     31    -0.206E+01     2.0285875193       27.7366309860       0.14  <-- CONV
        O_D=      1.3664972 O_OD=     12.9506473 O_TOT=     27.7366310 <-- SPRD
 Delta: O_D=  0.1510510E+00 O_OD= -0.2209541E+01 O_TOT= -0.2058490E+01 <-- DLTA
 ------------------------------------------------------------------------------
 Cycle:     32
  WF centre and spread    1  ( -2.033503, -1.079113,  2.277220 )     1.82934835
  WF centre and spread    2  ( -2.043641, -1.087965,  2.285828 )     1.82609789
  WF centre and spread    3  (  1.557079, -0.536113, -0.698211 )     1.29868792
  WF centre and spread    4  (  1.569714, -0.514572, -0.701603 )     1.28803898
  WF centre and spread    5  (  0.012847,  1.794936,  0.939412 )     1.63948104
  WF centre and spread    6  (  0.064517,  1.812254,  0.965573 )     1.67695168
  WF centre and spread    7  (  1.918126, -0.429635,  1.279960 )     1.33529066
  WF centre and spread    8  (  1.908484, -0.439615,  1.266933 )     1.34692796
  WF centre and spread    9  ( -1.238748, -0.895518, -0.507412 )     1.68157729
  WF centre and spread   10  ( -1.182601, -0.903819, -0.493466 )     1.78753532
  WF centre and spread   11  (  0.162996, -0.069571,  1.627732 )     1.41987417
  WF centre and spread   12  (  0.181945, -0.074959,  1.632963 )     1.40904058
  WF centre and spread   13  (  0.412318,  2.179651,  1.689670 )     1.95931717
  WF centre and spread   14  (  0.335005,  2.199065,  1.680451 )     2.12535396
  WF centre and spread   15  (  0.433964, -1.014840,  2.054576 )     2.09457568
  WF centre and spread   16  (  0.523209, -1.059813,  1.992530 )     2.03550507
  Sum of centres and spreads (  2.581709, -0.119626, 17.292156 )    26.75360372
 
     32    -0.983E+00     2.7833600016       26.7536037190       0.14  <-- CONV
        O_D=      1.0707210 O_OD=     12.2633963 O_TOT=     26.7536037 <-- SPRD
 Delta: O_D= -0.2957762E+00 O_OD= -0.6872510E+00 O_TOT= -0.9830273E+00 <-- DLTA
 ------------------------------------------------------------------------------
 Cycle:     33
  WF centre and spread    1  ( -2.067937, -1.104180,  2.298801 )     1.81606517
  WF centre and spread    2  ( -2.069408, -1.112050,  2.307260 )     1.80455900
  WF centre and spread    3  (  1.520688, -0.559009, -0.684319 )     1.30785470
  WF centre and spread    4  (  1.536106, -0.533985, -0.691874 )     1.28583005
  WF centre and spread    5  ( -0.015223,  1.775469,  0.995885 )     1.62313871
  WF centre and spread    6  (  0.033188,  1.783062,  1.013144 )     1.61477321
  WF centre and spread    7  (  1.917422, -0.411933,  1.288166 )     1.32446424
  WF centre and spread    8  (  1.909298, -0.423239,  1.277531 )     1.33384311
  WF centre and spread    9  ( -1.290647, -0.875416, -0.522193 )     1.60487346
  WF centre and spread   10  ( -1.253823, -0.878454, -0.514593 )     1.67553896
  WF centre and spread   11  (  0.144191, -0.058937,  1.612279 )     1.41915886
  WF centre and spread   12  (  0.158162, -0.064080,  1.621397 )     1.38174847
  WF centre and spread   13  (  0.435443,  2.170707,  1.685475 )     1.89605791
  WF centre and spread   14  (  0.324963,  2.186289,  1.672624 )     2.05015037
  WF centre and spread   15  (  0.393670, -0.974606,  2.126026 )     2.06820391
  WF centre and spread   16  (  0.363590, -0.961755,  2.131784 )     1.98358558
  Sum of centres and spreads (  2.039682, -0.042115, 17.617395 )    26.18984571
 
     33    -0.564E+00     2.8780284820       26.1898457090       0.14  <-- CONV
        O_D=      0.9019467 O_OD=     11.8684125 O_TOT=     26.1898457 <-- SPRD
 Delta: O_D= -0.1687743E+00 O_OD= -0.3949837E+00 O_TOT= -0.5637580E+00 <-- DLTA
 ------------------------------------------------------------------------------
 Cycle:     34
[...]
  WF centre and spread    3  (  1.285728, -0.742316, -0.524897 )     1.07178979
  WF centre and spread    4  (  1.285739, -0.742324, -0.524904 )     1.07181375
  WF centre and spread    5  ( -0.647751,  1.858621,  1.314248 )     1.07181023
  WF centre and spread    6  ( -0.647761,  1.858616,  1.314237 )     1.07178847
  WF centre and spread    7  (  1.933486, -0.368343,  1.314245 )     1.07181249
  WF centre and spread    8  (  1.933488, -0.368329,  1.314241 )     1.07178749
  WF centre and spread    9  ( -1.285728, -0.742316, -0.524898 )     1.07179340
  WF centre and spread   10  ( -1.285741, -0.742321, -0.524902 )     1.07181383
  WF centre and spread   11  ( -0.000002, -0.000001,  1.574690 )     1.07179354
  WF centre and spread   12  (  0.000000,  0.000002,  1.574701 )     1.07181321
  WF centre and spread   13  (  0.647747,  1.858619,  1.314247 )     1.07181231
  WF centre and spread   14  (  0.647762,  1.858616,  1.314239 )     1.07178882
  WF centre and spread   15  ( -0.000000, -0.747968,  2.632476 )     1.07179067
  WF centre and spread   16  ( -0.000000, -0.747955,  2.632466 )     1.07181534
  Sum of centres and spreads ( -0.000007,  0.000001, 18.944230 )    17.14882380
 
     91    -0.213E-13     0.0000002260       17.1488238018       0.20  <-- CONV
        O_D=      0.1690934 O_OD=      3.5602439 O_TOT=     17.1488238 <-- SPRD
 Delta: O_D= -0.2356343E-10 O_OD=  0.2354339E-10 O_TOT= -0.2131628E-13 <-- DLTA
 ------------------------------------------------------------------------------
 Cycle:     92
  WF centre and spread    1  ( -1.933486, -1.116298,  2.372014 )     1.07181015
  WF centre and spread    2  ( -1.933488, -1.116301,  2.372026 )     1.07179032
  WF centre and spread    3  (  1.285728, -0.742316, -0.524897 )     1.07178979
  WF centre and spread    4  (  1.285739, -0.742324, -0.524904 )     1.07181375
  WF centre and spread    5  ( -0.647751,  1.858621,  1.314248 )     1.07181023
  WF centre and spread    6  ( -0.647761,  1.858616,  1.314237 )     1.07178847
  WF centre and spread    7  (  1.933486, -0.368343,  1.314245 )     1.07181249
  WF centre and spread    8  (  1.933488, -0.368329,  1.314241 )     1.07178749
  WF centre and spread    9  ( -1.285728, -0.742316, -0.524898 )     1.07179340
  WF centre and spread   10  ( -1.285741, -0.742321, -0.524902 )     1.07181383
  WF centre and spread   11  ( -0.000002, -0.000001,  1.574690 )     1.07179353
  WF centre and spread   12  (  0.000000,  0.000002,  1.574701 )     1.07181321
  WF centre and spread   13  (  0.647747,  1.858619,  1.314247 )     1.07181231
  WF centre and spread   14  (  0.647762,  1.858616,  1.314239 )     1.07178882
  WF centre and spread   15  ( -0.000000, -0.747968,  2.632476 )     1.07179067
  WF centre and spread   16  ( -0.000000, -0.747955,  2.632466 )     1.07181534
  Sum of centres and spreads ( -0.000007,  0.000001, 18.944230 )    17.14882380
 
     92    -0.142E-13     0.0000002062       17.1488238018       0.20  <-- CONV
        O_D=      0.1690934 O_OD=      3.5602439 O_TOT=     17.1488238 <-- SPRD
 Delta: O_D= -0.2257888E-10 O_OD=  0.2256195E-10 O_TOT= -0.1421085E-13 <-- DLTA
 ------------------------------------------------------------------------------
 Cycle:     93
  WF centre and spread    1  ( -1.933486, -1.116298,  2.372014 )     1.07181015
  WF centre and spread    2  ( -1.933488, -1.116301,  2.372026 )     1.07179032
  WF centre and spread    3  (  1.285728, -0.742316, -0.524897 )     1.07178979
  WF centre and spread    4  (  1.285739, -0.742324, -0.524904 )     1.07181375
  WF centre and spread    5  ( -0.647751,  1.858621,  1.314248 )     1.07181023
  WF centre and spread    6  ( -0.647761,  1.858616,  1.314237 )     1.07178847
  WF centre and spread    7  (  1.933486, -0.368343,  1.314245 )     1.07181249
  WF centre and spread    8  (  1.933488, -0.368329,  1.314241 )     1.07178749
  WF centre and spread    9  ( -1.285728, -0.742316, -0.524898 )     1.07179340
  WF centre and spread   10  ( -1.285741, -0.742321, -0.524902 )     1.07181383
  WF centre and spread   11  ( -0.000002, -0.000001,  1.574690 )     1.07179353
  WF centre and spread   12  (  0.000000,  0.000002,  1.574701 )     1.07181321
  WF centre and spread   13  (  0.647747,  1.858619,  1.314247 )     1.07181231
  WF centre and spread   14  (  0.647762,  1.858616,  1.314239 )     1.07178882
  WF centre and spread   15  ( -0.000000, -0.747968,  2.632476 )     1.07179067
  WF centre and spread   16  ( -0.000000, -0.747955,  2.632466 )     1.07181534
  Sum of centres and spreads ( -0.000007,  0.000001, 18.944230 )    17.14882380
 
     93    -0.497E-13     0.0000002051       17.1488238018       0.20  <-- CONV
        O_D=      0.1690934 O_OD=      3.5602439 O_TOT=     17.1488238 <-- SPRD
 Delta: O_D= -0.2451045E-10 O_OD=  0.2446088E-10 O_TOT= -0.4973799E-13 <-- DLTA
 ------------------------------------------------------------------------------
 Cycle:     94
  WF centre and spread    1  ( -1.933486, -1.116298,  2.372014 )     1.07181015
  WF centre and spread    2  ( -1.933488, -1.116301,  2.372026 )     1.07179032
  WF centre and spread    3  (  1.285728, -0.742316, -0.524897 )     1.07178979
  WF centre and spread    4  (  1.285739, -0.742324, -0.524904 )     1.07181375
  WF centre and spread    5  ( -0.647751,  1.858621,  1.314248 )     1.07181023
  WF centre and spread    6  ( -0.647761,  1.858616,  1.314237 )     1.07178847
  WF centre and spread    7  (  1.933486, -0.368343,  1.314245 )     1.07181249
  WF centre and spread    8  (  1.933488, -0.368329,  1.314241 )     1.07178749
  WF centre and spread    9  ( -1.285728, -0.742316, -0.524898 )     1.07179339
  WF centre and spread   10  ( -1.285741, -0.742321, -0.524902 )     1.07181383
  WF centre and spread   11  ( -0.000002, -0.000001,  1.574690 )     1.07179353
  WF centre and spread   12  (  0.000000,  0.000002,  1.574701 )     1.07181321
  WF centre and spread   13  (  0.647747,  1.858619,  1.314247 )     1.07181231
  WF centre and spread   14  (  0.647762,  1.858616,  1.314239 )     1.07178882
  WF centre and spread   15  ( -0.000000, -0.747968,  2.632476 )     1.07179067
  WF centre and spread   16  ( -0.000000, -0.747955,  2.632466 )     1.07181534
  Sum of centres and spreads ( -0.000007,  0.000001, 18.944230 )    17.14882380
 
     94     0.249E-13     0.0000002099       17.1488238018       0.20  <-- CONV
        O_D=      0.1690934 O_OD=      3.5602439 O_TOT=     17.1488238 <-- SPRD
 Delta: O_D= -0.1031153E-10 O_OD=  0.1033928E-10 O_TOT=  0.2486900E-13 <-- DLTA
 ------------------------------------------------------------------------------
 Cycle:     95
  WF centre and spread    1  ( -1.933486, -1.116298,  2.372014 )     1.07181015
  WF centre and spread    2  ( -1.933488, -1.116301,  2.372026 )     1.07179032
  WF centre and spread    3  (  1.285728, -0.742316, -0.524897 )     1.07178979
  WF centre and spread    4  (  1.285739, -0.742324, -0.524904 )     1.07181375
  WF centre and spread    5  ( -0.647751,  1.858621,  1.314248 )     1.07181023
  WF centre and spread    6  ( -0.647761,  1.858616,  1.314237 )     1.07178847
  WF centre and spread    7  (  1.933486, -0.368343,  1.314245 )     1.07181249
  WF centre and spread    8  (  1.933488, -0.368329,  1.314241 )     1.07178749
  WF centre and spread    9  ( -1.285728, -0.742316, -0.524898 )     1.07179339
  WF centre and spread   10  ( -1.285741, -0.742321, -0.524902 )     1.07181383
  WF centre and spread   11  ( -0.000002, -0.000001,  1.574690 )     1.07179353
  WF centre and spread   12  (  0.000000,  0.000002,  1.574701 )     1.07181321
  WF centre and spread   13  (  0.647747,  1.858619,  1.314247 )     1.07181231
  WF centre and spread   14  (  0.647762,  1.858616,  1.314239 )     1.07178882
  WF centre and spread   15  ( -0.000000, -0.747968,  2.632476 )     1.07179067
  WF centre and spread   16  ( -0.000000, -0.747955,  2.632466 )     1.07181534
  Sum of centres and spreads ( -0.000007,  0.000001, 18.944230 )    17.14882380
 
     95    -0.284E-13     0.0000002099       17.1488238018       0.20  <-- CONV
        O_D=      0.1690934 O_OD=      3.5602439 O_TOT=     17.1488238 <-- SPRD
 Delta: O_D=  0.4231226E-11 O_OD= -0.4261480E-11 O_TOT= -0.2842171E-13 <-- DLTA
 ------------------------------------------------------------------------------
 Cycle:     96
  WF centre and spread    1  ( -1.933486, -1.116298,  2.372014 )     1.07181015
  WF centre and spread    2  ( -1.933488, -1.116301,  2.372026 )     1.07179032
  WF centre and spread    3  (  1.285728, -0.742316, -0.524897 )     1.07178979
  WF centre and spread    4  (  1.285739, -0.742324, -0.524904 )     1.07181375
  WF centre and spread    5  ( -0.647751,  1.858621,  1.314248 )     1.07181023
  WF centre and spread    6  ( -0.647761,  1.858616,  1.314237 )     1.07178847
  WF centre and spread    7  (  1.933486, -0.368343,  1.314245 )     1.07181249
  WF centre and spread    8  (  1.933488, -0.368329,  1.314241 )     1.07178749
  WF centre and spread    9  ( -1.285729, -0.742316, -0.524898 )     1.07179339
  WF centre and spread   10  ( -1.285741, -0.742321, -0.524902 )     1.07181383
  WF centre and spread   11  ( -0.000002, -0.000001,  1.574690 )     1.07179353
  WF centre and spread   12  (  0.000000,  0.000002,  1.574701 )     1.07181321
  WF centre and spread   13  (  0.647747,  1.858619,  1.314247 )     1.07181231
  WF centre and spread   14  (  0.647762,  1.858616,  1.314239 )     1.07178882
  WF centre and spread   15  ( -0.000000, -0.747968,  2.632476 )     1.07179067
  WF centre and spread   16  ( -0.000000, -0.747955,  2.632466 )     1.07181534
  Sum of centres and spreads ( -0.000007,  0.000001, 18.944230 )    17.14882380
 
     96    -0.107E-13     0.0000001974       17.1488238018       0.20  <-- CONV
        O_D=      0.1690934 O_OD=      3.5602439 O_TOT=     17.1488238 <-- SPRD
 Delta: O_D=  0.2859768E-11 O_OD= -0.2870593E-11 O_TOT= -0.1065814E-13 <-- DLTA
 ------------------------------------------------------------------------------
 Cycle:     97
  WF centre and spread    1  ( -1.933486, -1.116298,  2.372014 )     1.07181015
  WF centre and spread    2  ( -1.933488, -1.116301,  2.372026 )     1.07179032
  WF centre and spread    3  (  1.285728, -0.742316, -0.524897 )     1.07178979
  WF centre and spread    4  (  1.285739, -0.742324, -0.524904 )     1.07181375
  WF centre and spread    5  ( -0.647751,  1.858621,  1.314248 )     1.07181023
  WF centre and spread    6  ( -0.647761,  1.858616,  1.314237 )     1.07178847
  WF centre and spread    7  (  1.933486, -0.368343,  1.314245 )     1.07181249
  WF centre and spread    8  (  1.933488, -0.368329,  1.314241 )     1.07178749
  WF centre and spread    9  ( -1.285729, -0.742316, -0.524898 )     1.07179339
  WF centre and spread   10  ( -1.285741, -0.742321, -0.524902 )     1.07181383
  WF centre and spread   11  ( -0.000002, -0.000001,  1.574690 )     1.07179353
  WF centre and spread   12  (  0.000000,  0.000002,  1.574701 )     1.07181321
  WF centre and spread   13  (  0.647747,  1.858619,  1.314247 )     1.07181231
  WF centre and spread   14  (  0.647762,  1.858616,  1.314239 )     1.07178882
  WF centre and spread   15  ( -0.000000, -0.747968,  2.632476 )     1.07179067
  WF centre and spread   16  ( -0.000000, -0.747955,  2.632466 )     1.07181534
  Sum of centres and spreads ( -0.000007,  0.000001, 18.944230 )    17.14882380
 
     97     0.213E-13     0.0000001912       17.1488238018       0.20  <-- CONV
        O_D=      0.1690934 O_OD=      3.5602439 O_TOT=     17.1488238 <-- SPRD
 Delta: O_D=  0.5045159E-11 O_OD= -0.5023537E-11 O_TOT=  0.2131628E-13 <-- DLTA
 ------------------------------------------------------------------------------
 Cycle:     98
  WF centre and spread    1  ( -1.933486, -1.116298,  2.372014 )     1.07181015
  WF centre and spread    2  ( -1.933488, -1.116301,  2.372026 )     1.07179032
  WF centre and spread    3  (  1.285728, -0.742316, -0.524897 )     1.07178979
  WF centre and spread    4  (  1.285739, -0.742324, -0.524904 )     1.07181375
  WF centre and spread    5  ( -0.647751,  1.858621,  1.314248 )     1.07181023
  WF centre and spread    6  ( -0.647761,  1.858616,  1.314237 )     1.07178847
  WF centre and spread    7  (  1.933486, -0.368343,  1.314245 )     1.07181249
  WF centre and spread    8  (  1.933488, -0.368329,  1.314241 )     1.07178749
  WF centre and spread    9  ( -1.285729, -0.742316, -0.524898 )     1.07179339
  WF centre and spread   10  ( -1.285741, -0.742321, -0.524902 )     1.07181383
  WF centre and spread   11  ( -0.000002, -0.000001,  1.574690 )     1.07179353
  WF centre and spread   12  (  0.000000,  0.000002,  1.574701 )     1.07181321
  WF centre and spread   13  (  0.647747,  1.858619,  1.314247 )     1.07181231
  WF centre and spread   14  (  0.647762,  1.858616,  1.314239 )     1.07178882
  WF centre and spread   15  ( -0.000000, -0.747968,  2.632476 )     1.07179067
  WF centre and spread   16  ( -0.000000, -0.747955,  2.632466 )     1.07181534
  Sum of centres and spreads ( -0.000007,  0.000001, 18.944230 )    17.14882380
 
     98    -0.355E-13     0.0000001839       17.1488238018       0.20  <-- CONV
        O_D=      0.1690934 O_OD=      3.5602439 O_TOT=     17.1488238 <-- SPRD
 Delta: O_D=  0.1178652E-10 O_OD= -0.1182077E-10 O_TOT= -0.3552714E-13 <-- DLTA
 ------------------------------------------------------------------------------
 Cycle:     99
  WF centre and spread    1  ( -1.933486, -1.116298,  2.372014 )     1.07181015
  WF centre and spread    2  ( -1.933488, -1.116301,  2.372026 )     1.07179032
  WF centre and spread    3  (  1.285728, -0.742316, -0.524897 )     1.07178979
  WF centre and spread    4  (  1.285739, -0.742324, -0.524904 )     1.07181375
  WF centre and spread    5  ( -0.647751,  1.858621,  1.314248 )     1.07181023
  WF centre and spread    6  ( -0.647761,  1.858616,  1.314237 )     1.07178847
  WF centre and spread    7  (  1.933486, -0.368343,  1.314245 )     1.07181249
  WF centre and spread    8  (  1.933488, -0.368329,  1.314241 )     1.07178749
  WF centre and spread    9  ( -1.285729, -0.742316, -0.524898 )     1.07179339
  WF centre and spread   10  ( -1.285741, -0.742321, -0.524902 )     1.07181383
  WF centre and spread   11  ( -0.000002, -0.000001,  1.574690 )     1.07179353
  WF centre and spread   12  (  0.000000,  0.000002,  1.574701 )     1.07181321
  WF centre and spread   13  (  0.647747,  1.858619,  1.314247 )     1.07181231
  WF centre and spread   14  (  0.647762,  1.858616,  1.314239 )     1.07178882
  WF centre and spread   15  ( -0.000000, -0.747968,  2.632476 )     1.07179067
  WF centre and spread   16  ( -0.000000, -0.747955,  2.632466 )     1.07181534
  Sum of centres and spreads ( -0.000007,  0.000001, 18.944230 )    17.14882380
 
     99     0.355E-14     0.0000001811       17.1488238018       0.20  <-- CONV
        O_D=      0.1690934 O_OD=      3.5602439 O_TOT=     17.1488238 <-- SPRD
 Delta: O_D=  0.1134740E-10 O_OD= -0.1134381E-10 O_TOT=  0.3552714E-14 <-- DLTA
 ------------------------------------------------------------------------------
 Cycle:    100
  WF centre and spread    1  ( -1.933486, -1.116298,  2.372014 )     1.07181015
  WF centre and spread    2  ( -1.933488, -1.116301,  2.372026 )     1.07179032
  WF centre and spread    3  (  1.285728, -0.742316, -0.524897 )     1.07178979
  WF centre and spread    4  (  1.285739, -0.742324, -0.524904 )     1.07181375
  WF centre and spread    5  ( -0.647751,  1.858621,  1.314248 )     1.07181023
  WF centre and spread    6  ( -0.647761,  1.858616,  1.314237 )     1.07178847
  WF centre and spread    7  (  1.933486, -0.368343,  1.314245 )     1.07181249
  WF centre and spread    8  (  1.933488, -0.368329,  1.314241 )     1.07178749
  WF centre and spread    9  ( -1.285729, -0.742316, -0.524898 )     1.07179339
  WF centre and spread   10  ( -1.285741, -0.742321, -0.524902 )     1.07181383
  WF centre and spread   11  ( -0.000001, -0.000001,  1.574690 )     1.07179353
  WF centre and spread   12  (  0.000000,  0.000002,  1.574701 )     1.07181321
  WF centre and spread   13  (  0.647747,  1.858619,  1.314247 )     1.07181231
  WF centre and spread   14  (  0.647762,  1.858616,  1.314239 )     1.07178882
  WF centre and spread   15  ( -0.000000, -0.747968,  2.632476 )     1.07179067
  WF centre and spread   16  ( -0.000000, -0.747955,  2.632466 )     1.07181534
  Sum of centres and spreads ( -0.000007,  0.000001, 18.944230 )    17.14882380
 
    100    -0.426E-13     0.0000001891       17.1488238018       0.20  <-- CONV
        O_D=      0.1690934 O_OD=      3.5602439 O_TOT=     17.1488238 <-- SPRD
 Delta: O_D=  0.1228931E-10 O_OD= -0.1233280E-10 O_TOT= -0.4263256E-13 <-- DLTA
 ------------------------------------------------------------------------------

 Writing checkpoint file aiida.chk... done

 Final State
  WF centre and spread    1  ( -1.933486, -1.116298,  2.372014 )     1.07181015
  WF centre and spread    2  ( -1.933488, -1.116301,  2.372026 )     1.07179032
  WF centre and spread    3  (  1.285728, -0.742316, -0.524897 )     1.07178979
  WF centre and spread    4  (  1.285739, -0.742324, -0.524904 )     1.07181375
  WF centre and spread    5  ( -0.647751,  1.858621,  1.314248 )     1.07181023
  WF centre and spread    6  ( -0.647761,  1.858616,  1.314237 )     1.07178847
  WF centre and spread    7  (  1.933486, -0.368343,  1.314245 )     1.07181249
  WF centre and spread    8  (  1.933488, -0.368329,  1.314241 )     1.07178749
  WF centre and spread    9  ( -1.285729, -0.742316, -0.524898 )     1.07179339
  WF centre and spread   10  ( -1.285741, -0.742321, -0.524902 )     1.07181383
  WF centre and spread   11  ( -0.000001, -0.000001,  1.574690 )     1.07179353
  WF centre and spread   12  (  0.000000,  0.000002,  1.574701 )     1.07181321
  WF centre and spread   13  (  0.647747,  1.858619,  1.314247 )     1.07181231
  WF centre and spread   14  (  0.647762,  1.858616,  1.314239 )     1.07178882
  WF centre and spread   15  ( -0.000000, -0.747968,  2.632476 )     1.07179067
  WF centre and spread   16  ( -0.000000, -0.747955,  2.632466 )     1.07181534
  Sum of centres and spreads ( -0.000007,  0.000001, 18.944230 )    17.14882380
 
         Spreads (Ang^2)       Omega I      =    13.419486487
        ================       Omega D      =     0.169093406
                               Omega OD     =     3.560243909
    Final Spread (Ang^2)       Omega Total  =    17.148823802
 ------------------------------------------------------------------------------
 Time for wannierise            0.100 (sec)

 Writing checkpoint file aiida.chk... done

 *---------------------------------------------------------------------------*
 |                               PLOTTING                                    |
 *---------------------------------------------------------------------------*
 
 Time for plotting              0.106 (sec)
 Total Execution Time           0.340 (sec)

 *===========================================================================*
 |                             TIMING INFORMATION                            |
 *===========================================================================*
 |    Tag                                                Ncalls      Time (s)|
 |---------------------------------------------------------------------------|
 |kmesh: get                                        :         1         0.006|
 |overlap: allocate                                 :         1         0.000|
 |overlap: read                                     :         1         0.042|
 |dis: main                                         :         1         0.083|
 |wann: main                                        :         1         0.100|
 |plot: main                                        :         1         0.106|
 *---------------------------------------------------------------------------*
 
 All done: wannier90 exiting
