
     Program PWSCF v.7.3 starts on 19Apr2025 at 14:37:29 

     This program is part of the open-source Quantum ESPRESSO suite
     for quantum simulation of materials; please cite
         "P. Giannozzi et al., J. Phys.:Condens. Matter 21 395502 (2009);
         "P. Giannozzi et al., J. Phys.:Condens. Matter 29 465901 (2017);
         "P. Giannozzi et al., J. Chem. Phys. 152 154105 (2020);
          URL http://www.quantum-espresso.org", 
     in publications or presentations arising from this work. More details at
     http://www.quantum-espresso.org/quote

     Parallel version (MPI), running on    12 processors

     MPI processes distributed on     1 nodes
     603 MiB available memory on the printing compute node when the environment starts
 
     Reading input from aiida.in

     Current dimensions of program PWSCF are:
     Max number of different atomic species (ntypx) = 10
     Max number of k-points (npk) =  40000
     Max angular momentum in pseudopotentials (lmaxx) =  4
     file Si.rel-pbe-n-kjpaw_psl.0.1.UPF: wavefunction(s)  3S renormalized

     Atomic positions and unit cell read from directory:
     ./out/aiida.save/
 
 
     R & G space division:  proc/nbgrp/npool/nimage =      12
     Subspace diagonalization in iterative solution of the eigenvalue problem:
     a serial algorithm will be used

 
     Parallelization info
     --------------------
     sticks:   dense  smooth     PW     G-vecs:    dense   smooth      PW
     Min          30      25      9                  386      281      62
     Max          31      26     10                  388      283      65
     Sum         367     301    109                 4645     3383     749
 
     Using Slab Decomposition
 


     bravais-lattice index     =            0
     lattice parameter (alat)  =       7.3075  a.u.
     unit-cell volume          =     275.9279 (a.u.)^3
     number of atoms/cell      =            2
     number of atomic types    =            1
     number of electrons       =         8.00
     number of Kohn-Sham states=           32
     kinetic-energy cutoff     =      20.0000  Ry
     charge density cutoff     =     100.0000  Ry
     Exchange-correlation= SLA  PW   PBX  PBC
                           (   1   4   3   4   0   0   0)
     Non magnetic calculation with spin-orbit


     celldm(1)=   7.307523  celldm(2)=   0.000000  celldm(3)=   0.000000
     celldm(4)=   0.000000  celldm(5)=   0.000000  celldm(6)=   0.000000

     crystal axes: (cart. coord. in units of alat)
               a(1) = (   1.000000   0.000000   0.000000 )  
               a(2) = (   0.500000   0.866025   0.000000 )  
               a(3) = (   0.500000   0.288675   0.816497 )  

     reciprocal axes: (cart. coord. in units 2 pi/alat)
               b(1) = (  1.000000 -0.577350 -0.408248 )  
               b(2) = (  0.000000  1.154701 -0.408248 )  
               b(3) = (  0.000000  0.000000  1.224745 )  


     PseudoPot. # 1 for Si read from file:
     ./pseudo/Si.rel-pbe-n-kjpaw_psl.0.1.UPF
     MD5 check sum: 67eb1bc5c689d7b48afd963eedacb1f1
     Pseudo is Projector augmented-wave + core cor, Zval =  4.0
     Generated using "atomic" code by A. Dal Corso  v.5.0.2 svn rev. 9415
     Shape of augmentation charge: PSQ
     Using radial grid of 1141 points,  6 beta functions with: 
                l(1) =   0
                l(2) =   0
                l(3) =   1
                l(4) =   1
                l(5) =   1
                l(6) =   1
     Q(r) pseudized with 0 coefficients 


     atomic species   valence    mass     pseudopotential
     Si                4.00    28.08500     Si( 1.00)

     No symmetry found


                                    s                        frac. trans.

      isym =  1     identity                                     

 cryst.   s( 1) = (     1          0          0      )
                  (     0          1          0      )
                  (     0          0          1      )

 cart.    s( 1) = (  1.0000000  0.0000000  0.0000000 )
                  (  0.0000000  1.0000000  0.0000000 )
                  (  0.0000000  0.0000000  1.0000000 )


   Cartesian axes

     site n.     atom                  positions (alat units)
         1        Si     tau(   1) = (   1.5000000   0.8660254   0.6123724  )
         2        Si     tau(   2) = (   1.0000000   0.5773503   0.4082483  )

   Crystallographic axes

     site n.     atom                  positions (cryst. coord.)
         1        Si     tau(   1) = (  0.7500000  0.7500000  0.7500000  )
         2        Si     tau(   2) = (  0.5000000  0.5000000  0.5000000  )

     number of k points=   512
                       cart. coord. in units 2pi/alat
        k(    1) = (   0.0000000   0.0000000   0.0000000), wk =   0.0019531
        k(    2) = (   0.0000000   0.0000000   0.1530931), wk =   0.0019531
        k(    3) = (   0.0000000   0.0000000   0.3061862), wk =   0.0019531
        k(    4) = (   0.0000000   0.0000000   0.4592793), wk =   0.0019531
        k(    5) = (   0.0000000   0.0000000   0.6123724), wk =   0.0019531
        k(    6) = (   0.0000000   0.0000000   0.7654655), wk =   0.0019531
        k(    7) = (   0.0000000   0.0000000   0.9185587), wk =   0.0019531
        k(    8) = (   0.0000000   0.0000000   1.0716518), wk =   0.0019531
        k(    9) = (   0.0000000   0.1443376  -0.0510310), wk =   0.0019531
        k(   10) = (   0.0000000   0.1443376   0.1020621), wk =   0.0019531
        k(   11) = (   0.0000000   0.1443376   0.2551552), wk =   0.0019531
        k(   12) = (   0.0000000   0.1443376   0.4082483), wk =   0.0019531
        k(   13) = (   0.0000000   0.1443376   0.5613414), wk =   0.0019531
        k(   14) = (   0.0000000   0.1443376   0.7144345), wk =   0.0019531
        k(   15) = (   0.0000000   0.1443376   0.8675276), wk =   0.0019531
        k(   16) = (   0.0000000   0.1443376   1.0206207), wk =   0.0019531
        k(   17) = (   0.0000000   0.2886751  -0.1020621), wk =   0.0019531
        k(   18) = (   0.0000000   0.2886751   0.0510310), wk =   0.0019531
        k(   19) = (   0.0000000   0.2886751   0.2041241), wk =   0.0019531
        k(   20) = (   0.0000000   0.2886751   0.3572173), wk =   0.0019531
        k(   21) = (   0.0000000   0.2886751   0.5103104), wk =   0.0019531
        k(   22) = (   0.0000000   0.2886751   0.6634035), wk =   0.0019531
        k(   23) = (   0.0000000   0.2886751   0.8164966), wk =   0.0019531
        k(   24) = (   0.0000000   0.2886751   0.9695897), wk =   0.0019531
        k(   25) = (   0.0000000   0.4330127  -0.1530931), wk =   0.0019531
        k(   26) = (   0.0000000   0.4330127  -0.0000000), wk =   0.0019531
        k(   27) = (   0.0000000   0.4330127   0.1530931), wk =   0.0019531
        k(   28) = (   0.0000000   0.4330127   0.3061862), wk =   0.0019531
        k(   29) = (   0.0000000   0.4330127   0.4592793), wk =   0.0019531
        k(   30) = (   0.0000000   0.4330127   0.6123724), wk =   0.0019531
        k(   31) = (   0.0000000   0.4330127   0.7654655), wk =   0.0019531
        k(   32) = (   0.0000000   0.4330127   0.9185587), wk =   0.0019531
        k(   33) = (   0.0000000   0.5773503  -0.2041241), wk =   0.0019531
        k(   34) = (   0.0000000   0.5773503  -0.0510310), wk =   0.0019531
        k(   35) = (   0.0000000   0.5773503   0.1020621), wk =   0.0019531
        k(   36) = (   0.0000000   0.5773503   0.2551552), wk =   0.0019531
        k(   37) = (   0.0000000   0.5773503   0.4082483), wk =   0.0019531
        k(   38) = (   0.0000000   0.5773503   0.5613414), wk =   0.0019531
        k(   39) = (   0.0000000   0.5773503   0.7144345), wk =   0.0019531
        k(   40) = (   0.0000000   0.5773503   0.8675276), wk =   0.0019531
        k(   41) = (   0.0000000   0.7216878  -0.2551552), wk =   0.0019531
        k(   42) = (   0.0000000   0.7216878  -0.1020621), wk =   0.0019531
        k(   43) = (   0.0000000   0.7216878   0.0510310), wk =   0.0019531
        k(   44) = (   0.0000000   0.7216878   0.2041241), wk =   0.0019531
        k(   45) = (   0.0000000   0.7216878   0.3572173), wk =   0.0019531
        k(   46) = (   0.0000000   0.7216878   0.5103104), wk =   0.0019531
        k(   47) = (   0.0000000   0.7216878   0.6634035), wk =   0.0019531
        k(   48) = (   0.0000000   0.7216878   0.8164966), wk =   0.0019531
        k(   49) = (   0.0000000   0.8660254  -0.3061862), wk =   0.0019531
        k(   50) = (   0.0000000   0.8660254  -0.1530931), wk =   0.0019531
        k(   51) = (   0.0000000   0.8660254  -0.0000000), wk =   0.0019531
        k(   52) = (   0.0000000   0.8660254   0.1530931), wk =   0.0019531
        k(   53) = (   0.0000000   0.8660254   0.3061862), wk =   0.0019531
        k(   54) = (   0.0000000   0.8660254   0.4592793), wk =   0.0019531
        k(   55) = (   0.0000000   0.8660254   0.6123724), wk =   0.0019531
        k(   56) = (   0.0000000   0.8660254   0.7654655), wk =   0.0019531
        k(   57) = (   0.0000000   1.0103630  -0.3572173), wk =   0.0019531
        k(   58) = (   0.0000000   1.0103630  -0.2041241), wk =   0.0019531
        k(   59) = (   0.0000000   1.0103630  -0.0510310), wk =   0.0019531
        k(   60) = (   0.0000000   1.0103630   0.1020621), wk =   0.0019531
        k(   61) = (   0.0000000   1.0103630   0.2551552), wk =   0.0019531
        k(   62) = (   0.0000000   1.0103630   0.4082483), wk =   0.0019531
        k(   63) = (   0.0000000   1.0103630   0.5613414), wk =   0.0019531
        k(   64) = (   0.0000000   1.0103630   0.7144345), wk =   0.0019531
        k(   65) = (   0.1250000  -0.0721688  -0.0510310), wk =   0.0019531
        k(   66) = (   0.1250000  -0.0721688   0.1020621), wk =   0.0019531
        k(   67) = (   0.1250000  -0.0721688   0.2551552), wk =   0.0019531
        k(   68) = (   0.1250000  -0.0721688   0.4082483), wk =   0.0019531
        k(   69) = (   0.1250000  -0.0721688   0.5613414), wk =   0.0019531
        k(   70) = (   0.1250000  -0.0721688   0.7144345), wk =   0.0019531
        k(   71) = (   0.1250000  -0.0721688   0.8675276), wk =   0.0019531
        k(   72) = (   0.1250000  -0.0721688   1.0206207), wk =   0.0019531
        k(   73) = (   0.1250000   0.0721688  -0.1020621), wk =   0.0019531
        k(   74) = (   0.1250000   0.0721688   0.0510310), wk =   0.0019531
        k(   75) = (   0.1250000   0.0721688   0.2041241), wk =   0.0019531
        k(   76) = (   0.1250000   0.0721688   0.3572173), wk =   0.0019531
        k(   77) = (   0.1250000   0.0721688   0.5103104), wk =   0.0019531
        k(   78) = (   0.1250000   0.0721688   0.6634035), wk =   0.0019531
        k(   79) = (   0.1250000   0.0721688   0.8164966), wk =   0.0019531
        k(   80) = (   0.1250000   0.0721688   0.9695897), wk =   0.0019531
        k(   81) = (   0.1250000   0.2165064  -0.1530931), wk =   0.0019531
        k(   82) = (   0.1250000   0.2165064  -0.0000000), wk =   0.0019531
        k(   83) = (   0.1250000   0.2165064   0.1530931), wk =   0.0019531
        k(   84) = (   0.1250000   0.2165064   0.3061862), wk =   0.0019531
        k(   85) = (   0.1250000   0.2165064   0.4592793), wk =   0.0019531
        k(   86) = (   0.1250000   0.2165064   0.6123724), wk =   0.0019531
        k(   87) = (   0.1250000   0.2165064   0.7654655), wk =   0.0019531
        k(   88) = (   0.1250000   0.2165064   0.9185587), wk =   0.0019531
        k(   89) = (   0.1250000   0.3608439  -0.2041241), wk =   0.0019531
        k(   90) = (   0.1250000   0.3608439  -0.0510310), wk =   0.0019531
        k(   91) = (   0.1250000   0.3608439   0.1020621), wk =   0.0019531
        k(   92) = (   0.1250000   0.3608439   0.2551552), wk =   0.0019531
        k(   93) = (   0.1250000   0.3608439   0.4082483), wk =   0.0019531
        k(   94) = (   0.1250000   0.3608439   0.5613414), wk =   0.0019531
        k(   95) = (   0.1250000   0.3608439   0.7144345), wk =   0.0019531
        k(   96) = (   0.1250000   0.3608439   0.8675276), wk =   0.0019531
        k(   97) = (   0.1250000   0.5051815  -0.2551552), wk =   0.0019531
        k(   98) = (   0.1250000   0.5051815  -0.1020621), wk =   0.0019531
        k(   99) = (   0.1250000   0.5051815   0.0510310), wk =   0.0019531
        k(  100) = (   0.1250000   0.5051815   0.2041241), wk =   0.0019531
        k(  101) = (   0.1250000   0.5051815   0.3572173), wk =   0.0019531
        k(  102) = (   0.1250000   0.5051815   0.5103104), wk =   0.0019531
        k(  103) = (   0.1250000   0.5051815   0.6634035), wk =   0.0019531
        k(  104) = (   0.1250000   0.5051815   0.8164966), wk =   0.0019531
        k(  105) = (   0.1250000   0.6495191  -0.3061862), wk =   0.0019531
        k(  106) = (   0.1250000   0.6495191  -0.1530931), wk =   0.0019531
        k(  107) = (   0.1250000   0.6495191  -0.0000000), wk =   0.0019531
        k(  108) = (   0.1250000   0.6495191   0.1530931), wk =   0.0019531
        k(  109) = (   0.1250000   0.6495191   0.3061862), wk =   0.0019531
        k(  110) = (   0.1250000   0.6495191   0.4592793), wk =   0.0019531
        k(  111) = (   0.1250000   0.6495191   0.6123724), wk =   0.0019531
        k(  112) = (   0.1250000   0.6495191   0.7654655), wk =   0.0019531
        k(  113) = (   0.1250000   0.7938566  -0.3572173), wk =   0.0019531
        k(  114) = (   0.1250000   0.7938566  -0.2041241), wk =   0.0019531
        k(  115) = (   0.1250000   0.7938566  -0.0510310), wk =   0.0019531
        k(  116) = (   0.1250000   0.7938566   0.1020621), wk =   0.0019531
        k(  117) = (   0.1250000   0.7938566   0.2551552), wk =   0.0019531
        k(  118) = (   0.1250000   0.7938566   0.4082483), wk =   0.0019531
        k(  119) = (   0.1250000   0.7938566   0.5613414), wk =   0.0019531
        k(  120) = (   0.1250000   0.7938566   0.7144345), wk =   0.0019531
        k(  121) = (   0.1250000   0.9381942  -0.4082483), wk =   0.0019531
        k(  122) = (   0.1250000   0.9381942  -0.2551552), wk =   0.0019531
        k(  123) = (   0.1250000   0.9381942  -0.1020621), wk =   0.0019531
        k(  124) = (   0.1250000   0.9381942   0.0510310), wk =   0.0019531
        k(  125) = (   0.1250000   0.9381942   0.2041241), wk =   0.0019531
        k(  126) = (   0.1250000   0.9381942   0.3572173), wk =   0.0019531
        k(  127) = (   0.1250000   0.9381942   0.5103104), wk =   0.0019531
        k(  128) = (   0.1250000   0.9381942   0.6634035), wk =   0.0019531
        k(  129) = (   0.2500000  -0.1443376  -0.1020621), wk =   0.0019531
        k(  130) = (   0.2500000  -0.1443376   0.0510310), wk =   0.0019531
        k(  131) = (   0.2500000  -0.1443376   0.2041241), wk =   0.0019531
        k(  132) = (   0.2500000  -0.1443376   0.3572173), wk =   0.0019531
        k(  133) = (   0.2500000  -0.1443376   0.5103104), wk =   0.0019531
        k(  134) = (   0.2500000  -0.1443376   0.6634035), wk =   0.0019531
        k(  135) = (   0.2500000  -0.1443376   0.8164966), wk =   0.0019531
        k(  136) = (   0.2500000  -0.1443376   0.9695897), wk =   0.0019531
        k(  137) = (   0.2500000   0.0000000  -0.1530931), wk =   0.0019531
        k(  138) = (   0.2500000   0.0000000   0.0000000), wk =   0.0019531
        k(  139) = (   0.2500000   0.0000000   0.1530931), wk =   0.0019531
        k(  140) = (   0.2500000   0.0000000   0.3061862), wk =   0.0019531
        k(  141) = (   0.2500000   0.0000000   0.4592793), wk =   0.0019531
        k(  142) = (   0.2500000   0.0000000   0.6123724), wk =   0.0019531
        k(  143) = (   0.2500000   0.0000000   0.7654655), wk =   0.0019531
        k(  144) = (   0.2500000   0.0000000   0.9185587), wk =   0.0019531
        k(  145) = (   0.2500000   0.1443376  -0.2041241), wk =   0.0019531
        k(  146) = (   0.2500000   0.1443376  -0.0510310), wk =   0.0019531
        k(  147) = (   0.2500000   0.1443376   0.1020621), wk =   0.0019531
        k(  148) = (   0.2500000   0.1443376   0.2551552), wk =   0.0019531
        k(  149) = (   0.2500000   0.1443376   0.4082483), wk =   0.0019531
        k(  150) = (   0.2500000   0.1443376   0.5613414), wk =   0.0019531
        k(  151) = (   0.2500000   0.1443376   0.7144345), wk =   0.0019531
        k(  152) = (   0.2500000   0.1443376   0.8675276), wk =   0.0019531
        k(  153) = (   0.2500000   0.2886751  -0.2551552), wk =   0.0019531
        k(  154) = (   0.2500000   0.2886751  -0.1020621), wk =   0.0019531
        k(  155) = (   0.2500000   0.2886751   0.0510310), wk =   0.0019531
        k(  156) = (   0.2500000   0.2886751   0.2041241), wk =   0.0019531
        k(  157) = (   0.2500000   0.2886751   0.3572173), wk =   0.0019531
        k(  158) = (   0.2500000   0.2886751   0.5103104), wk =   0.0019531
        k(  159) = (   0.2500000   0.2886751   0.6634035), wk =   0.0019531
        k(  160) = (   0.2500000   0.2886751   0.8164966), wk =   0.0019531
        k(  161) = (   0.2500000   0.4330127  -0.3061862), wk =   0.0019531
        k(  162) = (   0.2500000   0.4330127  -0.1530931), wk =   0.0019531
        k(  163) = (   0.2500000   0.4330127  -0.0000000), wk =   0.0019531
        k(  164) = (   0.2500000   0.4330127   0.1530931), wk =   0.0019531
        k(  165) = (   0.2500000   0.4330127   0.3061862), wk =   0.0019531
        k(  166) = (   0.2500000   0.4330127   0.4592793), wk =   0.0019531
        k(  167) = (   0.2500000   0.4330127   0.6123724), wk =   0.0019531
        k(  168) = (   0.2500000   0.4330127   0.7654655), wk =   0.0019531
        k(  169) = (   0.2500000   0.5773503  -0.3572173), wk =   0.0019531
        k(  170) = (   0.2500000   0.5773503  -0.2041241), wk =   0.0019531
        k(  171) = (   0.2500000   0.5773503  -0.0510310), wk =   0.0019531
        k(  172) = (   0.2500000   0.5773503   0.1020621), wk =   0.0019531
        k(  173) = (   0.2500000   0.5773503   0.2551552), wk =   0.0019531
        k(  174) = (   0.2500000   0.5773503   0.4082483), wk =   0.0019531
        k(  175) = (   0.2500000   0.5773503   0.5613414), wk =   0.0019531
        k(  176) = (   0.2500000   0.5773503   0.7144345), wk =   0.0019531
        k(  177) = (   0.2500000   0.7216878  -0.4082483), wk =   0.0019531
        k(  178) = (   0.2500000   0.7216878  -0.2551552), wk =   0.0019531
        k(  179) = (   0.2500000   0.7216878  -0.1020621), wk =   0.0019531
        k(  180) = (   0.2500000   0.7216878   0.0510310), wk =   0.0019531
        k(  181) = (   0.2500000   0.7216878   0.2041241), wk =   0.0019531
        k(  182) = (   0.2500000   0.7216878   0.3572173), wk =   0.0019531
        k(  183) = (   0.2500000   0.7216878   0.5103104), wk =   0.0019531
        k(  184) = (   0.2500000   0.7216878   0.6634035), wk =   0.0019531
        k(  185) = (   0.2500000   0.8660254  -0.4592793), wk =   0.0019531
        k(  186) = (   0.2500000   0.8660254  -0.3061862), wk =   0.0019531
        k(  187) = (   0.2500000   0.8660254  -0.1530931), wk =   0.0019531
        k(  188) = (   0.2500000   0.8660254  -0.0000000), wk =   0.0019531
        k(  189) = (   0.2500000   0.8660254   0.1530931), wk =   0.0019531
        k(  190) = (   0.2500000   0.8660254   0.3061862), wk =   0.0019531
        k(  191) = (   0.2500000   0.8660254   0.4592793), wk =   0.0019531
        k(  192) = (   0.2500000   0.8660254   0.6123724), wk =   0.0019531
        k(  193) = (   0.3750000  -0.2165064  -0.1530931), wk =   0.0019531
        k(  194) = (   0.3750000  -0.2165064   0.0000000), wk =   0.0019531
        k(  195) = (   0.3750000  -0.2165064   0.1530931), wk =   0.0019531
        k(  196) = (   0.3750000  -0.2165064   0.3061862), wk =   0.0019531
        k(  197) = (   0.3750000  -0.2165064   0.4592793), wk =   0.0019531
        k(  198) = (   0.3750000  -0.2165064   0.6123724), wk =   0.0019531
        k(  199) = (   0.3750000  -0.2165064   0.7654655), wk =   0.0019531
        k(  200) = (   0.3750000  -0.2165064   0.9185587), wk =   0.0019531
        k(  201) = (   0.3750000  -0.0721688  -0.2041241), wk =   0.0019531
        k(  202) = (   0.3750000  -0.0721688  -0.0510310), wk =   0.0019531
        k(  203) = (   0.3750000  -0.0721688   0.1020621), wk =   0.0019531
        k(  204) = (   0.3750000  -0.0721688   0.2551552), wk =   0.0019531
        k(  205) = (   0.3750000  -0.0721688   0.4082483), wk =   0.0019531
        k(  206) = (   0.3750000  -0.0721688   0.5613414), wk =   0.0019531
        k(  207) = (   0.3750000  -0.0721688   0.7144345), wk =   0.0019531
        k(  208) = (   0.3750000  -0.0721688   0.8675276), wk =   0.0019531
        k(  209) = (   0.3750000   0.0721688  -0.2551552), wk =   0.0019531
        k(  210) = (   0.3750000   0.0721688  -0.1020621), wk =   0.0019531
        k(  211) = (   0.3750000   0.0721688   0.0510310), wk =   0.0019531
        k(  212) = (   0.3750000   0.0721688   0.2041241), wk =   0.0019531
        k(  213) = (   0.3750000   0.0721688   0.3572173), wk =   0.0019531
        k(  214) = (   0.3750000   0.0721688   0.5103104), wk =   0.0019531
        k(  215) = (   0.3750000   0.0721688   0.6634035), wk =   0.0019531
        k(  216) = (   0.3750000   0.0721688   0.8164966), wk =   0.0019531
        k(  217) = (   0.3750000   0.2165064  -0.3061862), wk =   0.0019531
        k(  218) = (   0.3750000   0.2165064  -0.1530931), wk =   0.0019531
        k(  219) = (   0.3750000   0.2165064  -0.0000000), wk =   0.0019531
        k(  220) = (   0.3750000   0.2165064   0.1530931), wk =   0.0019531
        k(  221) = (   0.3750000   0.2165064   0.3061862), wk =   0.0019531
        k(  222) = (   0.3750000   0.2165064   0.4592793), wk =   0.0019531
        k(  223) = (   0.3750000   0.2165064   0.6123724), wk =   0.0019531
        k(  224) = (   0.3750000   0.2165064   0.7654655), wk =   0.0019531
        k(  225) = (   0.3750000   0.3608439  -0.3572173), wk =   0.0019531
        k(  226) = (   0.3750000   0.3608439  -0.2041241), wk =   0.0019531
        k(  227) = (   0.3750000   0.3608439  -0.0510310), wk =   0.0019531
        k(  228) = (   0.3750000   0.3608439   0.1020621), wk =   0.0019531
        k(  229) = (   0.3750000   0.3608439   0.2551552), wk =   0.0019531
        k(  230) = (   0.3750000   0.3608439   0.4082483), wk =   0.0019531
        k(  231) = (   0.3750000   0.3608439   0.5613414), wk =   0.0019531
        k(  232) = (   0.3750000   0.3608439   0.7144345), wk =   0.0019531
        k(  233) = (   0.3750000   0.5051815  -0.4082483), wk =   0.0019531
        k(  234) = (   0.3750000   0.5051815  -0.2551552), wk =   0.0019531
        k(  235) = (   0.3750000   0.5051815  -0.1020621), wk =   0.0019531
        k(  236) = (   0.3750000   0.5051815   0.0510310), wk =   0.0019531
        k(  237) = (   0.3750000   0.5051815   0.2041241), wk =   0.0019531
        k(  238) = (   0.3750000   0.5051815   0.3572173), wk =   0.0019531
        k(  239) = (   0.3750000   0.5051815   0.5103104), wk =   0.0019531
        k(  240) = (   0.3750000   0.5051815   0.6634035), wk =   0.0019531
        k(  241) = (   0.3750000   0.6495191  -0.4592793), wk =   0.0019531
        k(  242) = (   0.3750000   0.6495191  -0.3061862), wk =   0.0019531
        k(  243) = (   0.3750000   0.6495191  -0.1530931), wk =   0.0019531
        k(  244) = (   0.3750000   0.6495191  -0.0000000), wk =   0.0019531
        k(  245) = (   0.3750000   0.6495191   0.1530931), wk =   0.0019531
        k(  246) = (   0.3750000   0.6495191   0.3061862), wk =   0.0019531
        k(  247) = (   0.3750000   0.6495191   0.4592793), wk =   0.0019531
        k(  248) = (   0.3750000   0.6495191   0.6123724), wk =   0.0019531
        k(  249) = (   0.3750000   0.7938566  -0.5103104), wk =   0.0019531
        k(  250) = (   0.3750000   0.7938566  -0.3572173), wk =   0.0019531
        k(  251) = (   0.3750000   0.7938566  -0.2041241), wk =   0.0019531
        k(  252) = (   0.3750000   0.7938566  -0.0510310), wk =   0.0019531
        k(  253) = (   0.3750000   0.7938566   0.1020621), wk =   0.0019531
        k(  254) = (   0.3750000   0.7938566   0.2551552), wk =   0.0019531
        k(  255) = (   0.3750000   0.7938566   0.4082483), wk =   0.0019531
        k(  256) = (   0.3750000   0.7938566   0.5613414), wk =   0.0019531
        k(  257) = (   0.5000000  -0.2886751  -0.2041241), wk =   0.0019531
        k(  258) = (   0.5000000  -0.2886751  -0.0510310), wk =   0.0019531
        k(  259) = (   0.5000000  -0.2886751   0.1020621), wk =   0.0019531
        k(  260) = (   0.5000000  -0.2886751   0.2551552), wk =   0.0019531
        k(  261) = (   0.5000000  -0.2886751   0.4082483), wk =   0.0019531
        k(  262) = (   0.5000000  -0.2886751   0.5613414), wk =   0.0019531
        k(  263) = (   0.5000000  -0.2886751   0.7144345), wk =   0.0019531
        k(  264) = (   0.5000000  -0.2886751   0.8675276), wk =   0.0019531
        k(  265) = (   0.5000000  -0.1443376  -0.2551552), wk =   0.0019531
        k(  266) = (   0.5000000  -0.1443376  -0.1020621), wk =   0.0019531
        k(  267) = (   0.5000000  -0.1443376   0.0510310), wk =   0.0019531
        k(  268) = (   0.5000000  -0.1443376   0.2041241), wk =   0.0019531
        k(  269) = (   0.5000000  -0.1443376   0.3572173), wk =   0.0019531
        k(  270) = (   0.5000000  -0.1443376   0.5103104), wk =   0.0019531
        k(  271) = (   0.5000000  -0.1443376   0.6634035), wk =   0.0019531
        k(  272) = (   0.5000000  -0.1443376   0.8164966), wk =   0.0019531
        k(  273) = (   0.5000000   0.0000000  -0.3061862), wk =   0.0019531
        k(  274) = (   0.5000000   0.0000000  -0.1530931), wk =   0.0019531
        k(  275) = (   0.5000000   0.0000000   0.0000000), wk =   0.0019531
        k(  276) = (   0.5000000   0.0000000   0.1530931), wk =   0.0019531
        k(  277) = (   0.5000000   0.0000000   0.3061862), wk =   0.0019531
        k(  278) = (   0.5000000   0.0000000   0.4592793), wk =   0.0019531
        k(  279) = (   0.5000000   0.0000000   0.6123724), wk =   0.0019531
        k(  280) = (   0.5000000   0.0000000   0.7654655), wk =   0.0019531
        k(  281) = (   0.5000000   0.1443376  -0.3572173), wk =   0.0019531
        k(  282) = (   0.5000000   0.1443376  -0.2041241), wk =   0.0019531
        k(  283) = (   0.5000000   0.1443376  -0.0510310), wk =   0.0019531
        k(  284) = (   0.5000000   0.1443376   0.1020621), wk =   0.0019531
        k(  285) = (   0.5000000   0.1443376   0.2551552), wk =   0.0019531
        k(  286) = (   0.5000000   0.1443376   0.4082483), wk =   0.0019531
        k(  287) = (   0.5000000   0.1443376   0.5613414), wk =   0.0019531
        k(  288) = (   0.5000000   0.1443376   0.7144345), wk =   0.0019531
        k(  289) = (   0.5000000   0.2886751  -0.4082483), wk =   0.0019531
        k(  290) = (   0.5000000   0.2886751  -0.2551552), wk =   0.0019531
        k(  291) = (   0.5000000   0.2886751  -0.1020621), wk =   0.0019531
        k(  292) = (   0.5000000   0.2886751   0.0510310), wk =   0.0019531
        k(  293) = (   0.5000000   0.2886751   0.2041241), wk =   0.0019531
        k(  294) = (   0.5000000   0.2886751   0.3572173), wk =   0.0019531
        k(  295) = (   0.5000000   0.2886751   0.5103104), wk =   0.0019531
        k(  296) = (   0.5000000   0.2886751   0.6634035), wk =   0.0019531
        k(  297) = (   0.5000000   0.4330127  -0.4592793), wk =   0.0019531
        k(  298) = (   0.5000000   0.4330127  -0.3061862), wk =   0.0019531
        k(  299) = (   0.5000000   0.4330127  -0.1530931), wk =   0.0019531
        k(  300) = (   0.5000000   0.4330127  -0.0000000), wk =   0.0019531
        k(  301) = (   0.5000000   0.4330127   0.1530931), wk =   0.0019531
        k(  302) = (   0.5000000   0.4330127   0.3061862), wk =   0.0019531
        k(  303) = (   0.5000000   0.4330127   0.4592793), wk =   0.0019531
        k(  304) = (   0.5000000   0.4330127   0.6123724), wk =   0.0019531
        k(  305) = (   0.5000000   0.5773503  -0.5103104), wk =   0.0019531
        k(  306) = (   0.5000000   0.5773503  -0.3572173), wk =   0.0019531
        k(  307) = (   0.5000000   0.5773503  -0.2041241), wk =   0.0019531
        k(  308) = (   0.5000000   0.5773503  -0.0510310), wk =   0.0019531
        k(  309) = (   0.5000000   0.5773503   0.1020621), wk =   0.0019531
        k(  310) = (   0.5000000   0.5773503   0.2551552), wk =   0.0019531
        k(  311) = (   0.5000000   0.5773503   0.4082483), wk =   0.0019531
        k(  312) = (   0.5000000   0.5773503   0.5613414), wk =   0.0019531
        k(  313) = (   0.5000000   0.7216878  -0.5613414), wk =   0.0019531
        k(  314) = (   0.5000000   0.7216878  -0.4082483), wk =   0.0019531
        k(  315) = (   0.5000000   0.7216878  -0.2551552), wk =   0.0019531
        k(  316) = (   0.5000000   0.7216878  -0.1020621), wk =   0.0019531
        k(  317) = (   0.5000000   0.7216878   0.0510310), wk =   0.0019531
        k(  318) = (   0.5000000   0.7216878   0.2041241), wk =   0.0019531
        k(  319) = (   0.5000000   0.7216878   0.3572173), wk =   0.0019531
        k(  320) = (   0.5000000   0.7216878   0.5103104), wk =   0.0019531
        k(  321) = (   0.6250000  -0.3608439  -0.2551552), wk =   0.0019531
        k(  322) = (   0.6250000  -0.3608439  -0.1020621), wk =   0.0019531
        k(  323) = (   0.6250000  -0.3608439   0.0510310), wk =   0.0019531
        k(  324) = (   0.6250000  -0.3608439   0.2041241), wk =   0.0019531
        k(  325) = (   0.6250000  -0.3608439   0.3572173), wk =   0.0019531
        k(  326) = (   0.6250000  -0.3608439   0.5103104), wk =   0.0019531
        k(  327) = (   0.6250000  -0.3608439   0.6634035), wk =   0.0019531
        k(  328) = (   0.6250000  -0.3608439   0.8164966), wk =   0.0019531
        k(  329) = (   0.6250000  -0.2165064  -0.3061862), wk =   0.0019531
        k(  330) = (   0.6250000  -0.2165064  -0.1530931), wk =   0.0019531
        k(  331) = (   0.6250000  -0.2165064   0.0000000), wk =   0.0019531
        k(  332) = (   0.6250000  -0.2165064   0.1530931), wk =   0.0019531
        k(  333) = (   0.6250000  -0.2165064   0.3061862), wk =   0.0019531
        k(  334) = (   0.6250000  -0.2165064   0.4592793), wk =   0.0019531
        k(  335) = (   0.6250000  -0.2165064   0.6123724), wk =   0.0019531
        k(  336) = (   0.6250000  -0.2165064   0.7654655), wk =   0.0019531
        k(  337) = (   0.6250000  -0.0721688  -0.3572173), wk =   0.0019531
        k(  338) = (   0.6250000  -0.0721688  -0.2041241), wk =   0.0019531
        k(  339) = (   0.6250000  -0.0721688  -0.0510310), wk =   0.0019531
        k(  340) = (   0.6250000  -0.0721688   0.1020621), wk =   0.0019531
        k(  341) = (   0.6250000  -0.0721688   0.2551552), wk =   0.0019531
        k(  342) = (   0.6250000  -0.0721688   0.4082483), wk =   0.0019531
        k(  343) = (   0.6250000  -0.0721688   0.5613414), wk =   0.0019531
        k(  344) = (   0.6250000  -0.0721688   0.7144345), wk =   0.0019531
        k(  345) = (   0.6250000   0.0721688  -0.4082483), wk =   0.0019531
        k(  346) = (   0.6250000   0.0721688  -0.2551552), wk =   0.0019531
        k(  347) = (   0.6250000   0.0721688  -0.1020621), wk =   0.0019531
        k(  348) = (   0.6250000   0.0721688   0.0510310), wk =   0.0019531
        k(  349) = (   0.6250000   0.0721688   0.2041241), wk =   0.0019531
        k(  350) = (   0.6250000   0.0721688   0.3572173), wk =   0.0019531
        k(  351) = (   0.6250000   0.0721688   0.5103104), wk =   0.0019531
        k(  352) = (   0.6250000   0.0721688   0.6634035), wk =   0.0019531
        k(  353) = (   0.6250000   0.2165064  -0.4592793), wk =   0.0019531
        k(  354) = (   0.6250000   0.2165064  -0.3061862), wk =   0.0019531
        k(  355) = (   0.6250000   0.2165064  -0.1530931), wk =   0.0019531
        k(  356) = (   0.6250000   0.2165064  -0.0000000), wk =   0.0019531
        k(  357) = (   0.6250000   0.2165064   0.1530931), wk =   0.0019531
        k(  358) = (   0.6250000   0.2165064   0.3061862), wk =   0.0019531
        k(  359) = (   0.6250000   0.2165064   0.4592793), wk =   0.0019531
        k(  360) = (   0.6250000   0.2165064   0.6123724), wk =   0.0019531
        k(  361) = (   0.6250000   0.3608439  -0.5103104), wk =   0.0019531
        k(  362) = (   0.6250000   0.3608439  -0.3572173), wk =   0.0019531
        k(  363) = (   0.6250000   0.3608439  -0.2041241), wk =   0.0019531
        k(  364) = (   0.6250000   0.3608439  -0.0510310), wk =   0.0019531
        k(  365) = (   0.6250000   0.3608439   0.1020621), wk =   0.0019531
        k(  366) = (   0.6250000   0.3608439   0.2551552), wk =   0.0019531
        k(  367) = (   0.6250000   0.3608439   0.4082483), wk =   0.0019531
        k(  368) = (   0.6250000   0.3608439   0.5613414), wk =   0.0019531
        k(  369) = (   0.6250000   0.5051815  -0.5613414), wk =   0.0019531
        k(  370) = (   0.6250000   0.5051815  -0.4082483), wk =   0.0019531
        k(  371) = (   0.6250000   0.5051815  -0.2551552), wk =   0.0019531
        k(  372) = (   0.6250000   0.5051815  -0.1020621), wk =   0.0019531
        k(  373) = (   0.6250000   0.5051815   0.0510310), wk =   0.0019531
        k(  374) = (   0.6250000   0.5051815   0.2041241), wk =   0.0019531
        k(  375) = (   0.6250000   0.5051815   0.3572173), wk =   0.0019531
        k(  376) = (   0.6250000   0.5051815   0.5103104), wk =   0.0019531
        k(  377) = (   0.6250000   0.6495191  -0.6123724), wk =   0.0019531
        k(  378) = (   0.6250000   0.6495191  -0.4592793), wk =   0.0019531
        k(  379) = (   0.6250000   0.6495191  -0.3061862), wk =   0.0019531
        k(  380) = (   0.6250000   0.6495191  -0.1530931), wk =   0.0019531
        k(  381) = (   0.6250000   0.6495191  -0.0000000), wk =   0.0019531
        k(  382) = (   0.6250000   0.6495191   0.1530931), wk =   0.0019531
        k(  383) = (   0.6250000   0.6495191   0.3061862), wk =   0.0019531
        k(  384) = (   0.6250000   0.6495191   0.4592793), wk =   0.0019531
        k(  385) = (   0.7500000  -0.4330127  -0.3061862), wk =   0.0019531
        k(  386) = (   0.7500000  -0.4330127  -0.1530931), wk =   0.0019531
        k(  387) = (   0.7500000  -0.4330127   0.0000000), wk =   0.0019531
        k(  388) = (   0.7500000  -0.4330127   0.1530931), wk =   0.0019531
        k(  389) = (   0.7500000  -0.4330127   0.3061862), wk =   0.0019531
        k(  390) = (   0.7500000  -0.4330127   0.4592793), wk =   0.0019531
        k(  391) = (   0.7500000  -0.4330127   0.6123724), wk =   0.0019531
        k(  392) = (   0.7500000  -0.4330127   0.7654655), wk =   0.0019531
        k(  393) = (   0.7500000  -0.2886751  -0.3572173), wk =   0.0019531
        k(  394) = (   0.7500000  -0.2886751  -0.2041241), wk =   0.0019531
        k(  395) = (   0.7500000  -0.2886751  -0.0510310), wk =   0.0019531
        k(  396) = (   0.7500000  -0.2886751   0.1020621), wk =   0.0019531
        k(  397) = (   0.7500000  -0.2886751   0.2551552), wk =   0.0019531
        k(  398) = (   0.7500000  -0.2886751   0.4082483), wk =   0.0019531
        k(  399) = (   0.7500000  -0.2886751   0.5613414), wk =   0.0019531
        k(  400) = (   0.7500000  -0.2886751   0.7144345), wk =   0.0019531
        k(  401) = (   0.7500000  -0.1443376  -0.4082483), wk =   0.0019531
        k(  402) = (   0.7500000  -0.1443376  -0.2551552), wk =   0.0019531
        k(  403) = (   0.7500000  -0.1443376  -0.1020621), wk =   0.0019531
        k(  404) = (   0.7500000  -0.1443376   0.0510310), wk =   0.0019531
        k(  405) = (   0.7500000  -0.1443376   0.2041241), wk =   0.0019531
        k(  406) = (   0.7500000  -0.1443376   0.3572173), wk =   0.0019531
        k(  407) = (   0.7500000  -0.1443376   0.5103104), wk =   0.0019531
        k(  408) = (   0.7500000  -0.1443376   0.6634035), wk =   0.0019531
        k(  409) = (   0.7500000   0.0000000  -0.4592793), wk =   0.0019531
        k(  410) = (   0.7500000   0.0000000  -0.3061862), wk =   0.0019531
        k(  411) = (   0.7500000   0.0000000  -0.1530931), wk =   0.0019531
        k(  412) = (   0.7500000   0.0000000  -0.0000000), wk =   0.0019531
        k(  413) = (   0.7500000   0.0000000   0.1530931), wk =   0.0019531
        k(  414) = (   0.7500000   0.0000000   0.3061862), wk =   0.0019531
        k(  415) = (   0.7500000   0.0000000   0.4592793), wk =   0.0019531
        k(  416) = (   0.7500000   0.0000000   0.6123724), wk =   0.0019531
        k(  417) = (   0.7500000   0.1443376  -0.5103104), wk =   0.0019531
        k(  418) = (   0.7500000   0.1443376  -0.3572173), wk =   0.0019531
        k(  419) = (   0.7500000   0.1443376  -0.2041241), wk =   0.0019531
        k(  420) = (   0.7500000   0.1443376  -0.0510310), wk =   0.0019531
        k(  421) = (   0.7500000   0.1443376   0.1020621), wk =   0.0019531
        k(  422) = (   0.7500000   0.1443376   0.2551552), wk =   0.0019531
        k(  423) = (   0.7500000   0.1443376   0.4082483), wk =   0.0019531
        k(  424) = (   0.7500000   0.1443376   0.5613414), wk =   0.0019531
        k(  425) = (   0.7500000   0.2886751  -0.5613414), wk =   0.0019531
        k(  426) = (   0.7500000   0.2886751  -0.4082483), wk =   0.0019531
        k(  427) = (   0.7500000   0.2886751  -0.2551552), wk =   0.0019531
        k(  428) = (   0.7500000   0.2886751  -0.1020621), wk =   0.0019531
        k(  429) = (   0.7500000   0.2886751   0.0510310), wk =   0.0019531
        k(  430) = (   0.7500000   0.2886751   0.2041241), wk =   0.0019531
        k(  431) = (   0.7500000   0.2886751   0.3572173), wk =   0.0019531
        k(  432) = (   0.7500000   0.2886751   0.5103104), wk =   0.0019531
        k(  433) = (   0.7500000   0.4330127  -0.6123724), wk =   0.0019531
        k(  434) = (   0.7500000   0.4330127  -0.4592793), wk =   0.0019531
        k(  435) = (   0.7500000   0.4330127  -0.3061862), wk =   0.0019531
        k(  436) = (   0.7500000   0.4330127  -0.1530931), wk =   0.0019531
        k(  437) = (   0.7500000   0.4330127  -0.0000000), wk =   0.0019531
        k(  438) = (   0.7500000   0.4330127   0.1530931), wk =   0.0019531
        k(  439) = (   0.7500000   0.4330127   0.3061862), wk =   0.0019531
        k(  440) = (   0.7500000   0.4330127   0.4592793), wk =   0.0019531
        k(  441) = (   0.7500000   0.5773503  -0.6634035), wk =   0.0019531
        k(  442) = (   0.7500000   0.5773503  -0.5103104), wk =   0.0019531
        k(  443) = (   0.7500000   0.5773503  -0.3572173), wk =   0.0019531
        k(  444) = (   0.7500000   0.5773503  -0.2041241), wk =   0.0019531
        k(  445) = (   0.7500000   0.5773503  -0.0510310), wk =   0.0019531
        k(  446) = (   0.7500000   0.5773503   0.1020621), wk =   0.0019531
        k(  447) = (   0.7500000   0.5773503   0.2551552), wk =   0.0019531
        k(  448) = (   0.7500000   0.5773503   0.4082483), wk =   0.0019531
        k(  449) = (   0.8750000  -0.5051815  -0.3572173), wk =   0.0019531
        k(  450) = (   0.8750000  -0.5051815  -0.2041241), wk =   0.0019531
        k(  451) = (   0.8750000  -0.5051815  -0.0510310), wk =   0.0019531
        k(  452) = (   0.8750000  -0.5051815   0.1020621), wk =   0.0019531
        k(  453) = (   0.8750000  -0.5051815   0.2551552), wk =   0.0019531
        k(  454) = (   0.8750000  -0.5051815   0.4082483), wk =   0.0019531
        k(  455) = (   0.8750000  -0.5051815   0.5613414), wk =   0.0019531
        k(  456) = (   0.8750000  -0.5051815   0.7144345), wk =   0.0019531
        k(  457) = (   0.8750000  -0.3608439  -0.4082483), wk =   0.0019531
        k(  458) = (   0.8750000  -0.3608439  -0.2551552), wk =   0.0019531
        k(  459) = (   0.8750000  -0.3608439  -0.1020621), wk =   0.0019531
        k(  460) = (   0.8750000  -0.3608439   0.0510310), wk =   0.0019531
        k(  461) = (   0.8750000  -0.3608439   0.2041241), wk =   0.0019531
        k(  462) = (   0.8750000  -0.3608439   0.3572173), wk =   0.0019531
        k(  463) = (   0.8750000  -0.3608439   0.5103104), wk =   0.0019531
        k(  464) = (   0.8750000  -0.3608439   0.6634035), wk =   0.0019531
        k(  465) = (   0.8750000  -0.2165064  -0.4592793), wk =   0.0019531
        k(  466) = (   0.8750000  -0.2165064  -0.3061862), wk =   0.0019531
        k(  467) = (   0.8750000  -0.2165064  -0.1530931), wk =   0.0019531
        k(  468) = (   0.8750000  -0.2165064   0.0000000), wk =   0.0019531
        k(  469) = (   0.8750000  -0.2165064   0.1530931), wk =   0.0019531
        k(  470) = (   0.8750000  -0.2165064   0.3061862), wk =   0.0019531
        k(  471) = (   0.8750000  -0.2165064   0.4592793), wk =   0.0019531
        k(  472) = (   0.8750000  -0.2165064   0.6123724), wk =   0.0019531
        k(  473) = (   0.8750000  -0.0721688  -0.5103104), wk =   0.0019531
        k(  474) = (   0.8750000  -0.0721688  -0.3572173), wk =   0.0019531
        k(  475) = (   0.8750000  -0.0721688  -0.2041241), wk =   0.0019531
        k(  476) = (   0.8750000  -0.0721688  -0.0510310), wk =   0.0019531
        k(  477) = (   0.8750000  -0.0721688   0.1020621), wk =   0.0019531
        k(  478) = (   0.8750000  -0.0721688   0.2551552), wk =   0.0019531
        k(  479) = (   0.8750000  -0.0721688   0.4082483), wk =   0.0019531
        k(  480) = (   0.8750000  -0.0721688   0.5613414), wk =   0.0019531
        k(  481) = (   0.8750000   0.0721688  -0.5613414), wk =   0.0019531
        k(  482) = (   0.8750000   0.0721688  -0.4082483), wk =   0.0019531
        k(  483) = (   0.8750000   0.0721688  -0.2551552), wk =   0.0019531
        k(  484) = (   0.8750000   0.0721688  -0.1020621), wk =   0.0019531
        k(  485) = (   0.8750000   0.0721688   0.0510310), wk =   0.0019531
        k(  486) = (   0.8750000   0.0721688   0.2041241), wk =   0.0019531
        k(  487) = (   0.8750000   0.0721688   0.3572173), wk =   0.0019531
        k(  488) = (   0.8750000   0.0721688   0.5103104), wk =   0.0019531
        k(  489) = (   0.8750000   0.2165064  -0.6123724), wk =   0.0019531
        k(  490) = (   0.8750000   0.2165064  -0.4592793), wk =   0.0019531
        k(  491) = (   0.8750000   0.2165064  -0.3061862), wk =   0.0019531
        k(  492) = (   0.8750000   0.2165064  -0.1530931), wk =   0.0019531
        k(  493) = (   0.8750000   0.2165064  -0.0000000), wk =   0.0019531
        k(  494) = (   0.8750000   0.2165064   0.1530931), wk =   0.0019531
        k(  495) = (   0.8750000   0.2165064   0.3061862), wk =   0.0019531
        k(  496) = (   0.8750000   0.2165064   0.4592793), wk =   0.0019531
        k(  497) = (   0.8750000   0.3608439  -0.6634035), wk =   0.0019531
        k(  498) = (   0.8750000   0.3608439  -0.5103104), wk =   0.0019531
        k(  499) = (   0.8750000   0.3608439  -0.3572173), wk =   0.0019531
        k(  500) = (   0.8750000   0.3608439  -0.2041241), wk =   0.0019531
        k(  501) = (   0.8750000   0.3608439  -0.0510310), wk =   0.0019531
        k(  502) = (   0.8750000   0.3608439   0.1020621), wk =   0.0019531
        k(  503) = (   0.8750000   0.3608439   0.2551552), wk =   0.0019531
        k(  504) = (   0.8750000   0.3608439   0.4082483), wk =   0.0019531
        k(  505) = (   0.8750000   0.5051815  -0.7144345), wk =   0.0019531
        k(  506) = (   0.8750000   0.5051815  -0.5613414), wk =   0.0019531
        k(  507) = (   0.8750000   0.5051815  -0.4082483), wk =   0.0019531
        k(  508) = (   0.8750000   0.5051815  -0.2551552), wk =   0.0019531
        k(  509) = (   0.8750000   0.5051815  -0.1020621), wk =   0.0019531
        k(  510) = (   0.8750000   0.5051815   0.0510310), wk =   0.0019531
        k(  511) = (   0.8750000   0.5051815   0.2041241), wk =   0.0019531
        k(  512) = (   0.8750000   0.5051815   0.3572173), wk =   0.0019531

                       cryst. coord.
        k(    1) = (   0.0000000   0.0000000   0.0000000), wk =   0.0019531
        k(    2) = (   0.0000000   0.0000000   0.1250000), wk =   0.0019531
        k(    3) = (   0.0000000   0.0000000   0.2500000), wk =   0.0019531
        k(    4) = (   0.0000000   0.0000000   0.3750000), wk =   0.0019531
        k(    5) = (   0.0000000   0.0000000   0.5000000), wk =   0.0019531
        k(    6) = (   0.0000000   0.0000000   0.6250000), wk =   0.0019531
        k(    7) = (   0.0000000   0.0000000   0.7500000), wk =   0.0019531
        k(    8) = (   0.0000000   0.0000000   0.8750000), wk =   0.0019531
        k(    9) = (   0.0000000   0.1250000   0.0000000), wk =   0.0019531
        k(   10) = (   0.0000000   0.1250000   0.1250000), wk =   0.0019531
        k(   11) = (   0.0000000   0.1250000   0.2500000), wk =   0.0019531
        k(   12) = (   0.0000000   0.1250000   0.3750000), wk =   0.0019531
        k(   13) = (   0.0000000   0.1250000   0.5000000), wk =   0.0019531
        k(   14) = (   0.0000000   0.1250000   0.6250000), wk =   0.0019531
        k(   15) = (   0.0000000   0.1250000   0.7500000), wk =   0.0019531
        k(   16) = (   0.0000000   0.1250000   0.8750000), wk =   0.0019531
        k(   17) = (   0.0000000   0.2500000   0.0000000), wk =   0.0019531
        k(   18) = (   0.0000000   0.2500000   0.1250000), wk =   0.0019531
        k(   19) = (   0.0000000   0.2500000   0.2500000), wk =   0.0019531
        k(   20) = (   0.0000000   0.2500000   0.3750000), wk =   0.0019531
        k(   21) = (   0.0000000   0.2500000   0.5000000), wk =   0.0019531
        k(   22) = (   0.0000000   0.2500000   0.6250000), wk =   0.0019531
        k(   23) = (   0.0000000   0.2500000   0.7500000), wk =   0.0019531
        k(   24) = (   0.0000000   0.2500000   0.8750000), wk =   0.0019531
        k(   25) = (   0.0000000   0.3750000   0.0000000), wk =   0.0019531
        k(   26) = (   0.0000000   0.3750000   0.1250000), wk =   0.0019531
        k(   27) = (   0.0000000   0.3750000   0.2500000), wk =   0.0019531
        k(   28) = (   0.0000000   0.3750000   0.3750000), wk =   0.0019531
        k(   29) = (   0.0000000   0.3750000   0.5000000), wk =   0.0019531
        k(   30) = (   0.0000000   0.3750000   0.6250000), wk =   0.0019531
        k(   31) = (   0.0000000   0.3750000   0.7500000), wk =   0.0019531
        k(   32) = (   0.0000000   0.3750000   0.8750000), wk =   0.0019531
        k(   33) = (   0.0000000   0.5000000   0.0000000), wk =   0.0019531
        k(   34) = (   0.0000000   0.5000000   0.1250000), wk =   0.0019531
        k(   35) = (   0.0000000   0.5000000   0.2500000), wk =   0.0019531
        k(   36) = (   0.0000000   0.5000000   0.3750000), wk =   0.0019531
        k(   37) = (   0.0000000   0.5000000   0.5000000), wk =   0.0019531
        k(   38) = (   0.0000000   0.5000000   0.6250000), wk =   0.0019531
        k(   39) = (   0.0000000   0.5000000   0.7500000), wk =   0.0019531
        k(   40) = (   0.0000000   0.5000000   0.8750000), wk =   0.0019531
        k(   41) = (   0.0000000   0.6250000  -0.0000000), wk =   0.0019531
        k(   42) = (   0.0000000   0.6250000   0.1250000), wk =   0.0019531
        k(   43) = (   0.0000000   0.6250000   0.2500000), wk =   0.0019531
        k(   44) = (   0.0000000   0.6250000   0.3750000), wk =   0.0019531
        k(   45) = (   0.0000000   0.6250000   0.5000000), wk =   0.0019531
        k(   46) = (   0.0000000   0.6250000   0.6250000), wk =   0.0019531
        k(   47) = (   0.0000000   0.6250000   0.7500000), wk =   0.0019531
        k(   48) = (   0.0000000   0.6250000   0.8750000), wk =   0.0019531
        k(   49) = (   0.0000000   0.7500000   0.0000000), wk =   0.0019531
        k(   50) = (   0.0000000   0.7500000   0.1250000), wk =   0.0019531
        k(   51) = (   0.0000000   0.7500000   0.2500000), wk =   0.0019531
        k(   52) = (   0.0000000   0.7500000   0.3750000), wk =   0.0019531
        k(   53) = (   0.0000000   0.7500000   0.5000000), wk =   0.0019531
        k(   54) = (   0.0000000   0.7500000   0.6250000), wk =   0.0019531
        k(   55) = (   0.0000000   0.7500000   0.7500000), wk =   0.0019531
        k(   56) = (   0.0000000   0.7500000   0.8750000), wk =   0.0019531
        k(   57) = (   0.0000000   0.8750000   0.0000000), wk =   0.0019531
        k(   58) = (   0.0000000   0.8750000   0.1250000), wk =   0.0019531
        k(   59) = (   0.0000000   0.8750000   0.2500000), wk =   0.0019531
        k(   60) = (   0.0000000   0.8750000   0.3750000), wk =   0.0019531
        k(   61) = (   0.0000000   0.8750000   0.5000000), wk =   0.0019531
        k(   62) = (   0.0000000   0.8750000   0.6250000), wk =   0.0019531
        k(   63) = (   0.0000000   0.8750000   0.7500000), wk =   0.0019531
        k(   64) = (   0.0000000   0.8750000   0.8750000), wk =   0.0019531
        k(   65) = (   0.1250000   0.0000000  -0.0000000), wk =   0.0019531
        k(   66) = (   0.1250000   0.0000000   0.1250000), wk =   0.0019531
        k(   67) = (   0.1250000   0.0000000   0.2500000), wk =   0.0019531
        k(   68) = (   0.1250000   0.0000000   0.3750000), wk =   0.0019531
        k(   69) = (   0.1250000   0.0000000   0.5000000), wk =   0.0019531
        k(   70) = (   0.1250000   0.0000000   0.6250000), wk =   0.0019531
        k(   71) = (   0.1250000   0.0000000   0.7500000), wk =   0.0019531
        k(   72) = (   0.1250000   0.0000000   0.8750000), wk =   0.0019531
        k(   73) = (   0.1250000   0.1250000  -0.0000000), wk =   0.0019531
        k(   74) = (   0.1250000   0.1250000   0.1250000), wk =   0.0019531
        k(   75) = (   0.1250000   0.1250000   0.2500000), wk =   0.0019531
        k(   76) = (   0.1250000   0.1250000   0.3750000), wk =   0.0019531
        k(   77) = (   0.1250000   0.1250000   0.5000000), wk =   0.0019531
        k(   78) = (   0.1250000   0.1250000   0.6250000), wk =   0.0019531
        k(   79) = (   0.1250000   0.1250000   0.7500000), wk =   0.0019531
        k(   80) = (   0.1250000   0.1250000   0.8750000), wk =   0.0019531
        k(   81) = (   0.1250000   0.2500000   0.0000000), wk =   0.0019531
        k(   82) = (   0.1250000   0.2500000   0.1250000), wk =   0.0019531
        k(   83) = (   0.1250000   0.2500000   0.2500000), wk =   0.0019531
        k(   84) = (   0.1250000   0.2500000   0.3750000), wk =   0.0019531
        k(   85) = (   0.1250000   0.2500000   0.5000000), wk =   0.0019531
        k(   86) = (   0.1250000   0.2500000   0.6250000), wk =   0.0019531
        k(   87) = (   0.1250000   0.2500000   0.7500000), wk =   0.0019531
        k(   88) = (   0.1250000   0.2500000   0.8750000), wk =   0.0019531
        k(   89) = (   0.1250000   0.3750000  -0.0000000), wk =   0.0019531
        k(   90) = (   0.1250000   0.3750000   0.1250000), wk =   0.0019531
        k(   91) = (   0.1250000   0.3750000   0.2500000), wk =   0.0019531
        k(   92) = (   0.1250000   0.3750000   0.3750000), wk =   0.0019531
        k(   93) = (   0.1250000   0.3750000   0.5000000), wk =   0.0019531
        k(   94) = (   0.1250000   0.3750000   0.6250000), wk =   0.0019531
        k(   95) = (   0.1250000   0.3750000   0.7500000), wk =   0.0019531
        k(   96) = (   0.1250000   0.3750000   0.8750000), wk =   0.0019531
        k(   97) = (   0.1250000   0.5000000   0.0000000), wk =   0.0019531
        k(   98) = (   0.1250000   0.5000000   0.1250000), wk =   0.0019531
        k(   99) = (   0.1250000   0.5000000   0.2500000), wk =   0.0019531
        k(  100) = (   0.1250000   0.5000000   0.3750000), wk =   0.0019531
        k(  101) = (   0.1250000   0.5000000   0.5000000), wk =   0.0019531
        k(  102) = (   0.1250000   0.5000000   0.6250000), wk =   0.0019531
        k(  103) = (   0.1250000   0.5000000   0.7500000), wk =   0.0019531
        k(  104) = (   0.1250000   0.5000000   0.8750000), wk =   0.0019531
        k(  105) = (   0.1250000   0.6250000  -0.0000000), wk =   0.0019531
        k(  106) = (   0.1250000   0.6250000   0.1250000), wk =   0.0019531
        k(  107) = (   0.1250000   0.6250000   0.2500000), wk =   0.0019531
        k(  108) = (   0.1250000   0.6250000   0.3750000), wk =   0.0019531
        k(  109) = (   0.1250000   0.6250000   0.5000000), wk =   0.0019531
        k(  110) = (   0.1250000   0.6250000   0.6250000), wk =   0.0019531
        k(  111) = (   0.1250000   0.6250000   0.7500000), wk =   0.0019531
        k(  112) = (   0.1250000   0.6250000   0.8750000), wk =   0.0019531
        k(  113) = (   0.1250000   0.7500000   0.0000000), wk =   0.0019531
        k(  114) = (   0.1250000   0.7500000   0.1250000), wk =   0.0019531
        k(  115) = (   0.1250000   0.7500000   0.2500000), wk =   0.0019531
        k(  116) = (   0.1250000   0.7500000   0.3750000), wk =   0.0019531
        k(  117) = (   0.1250000   0.7500000   0.5000000), wk =   0.0019531
        k(  118) = (   0.1250000   0.7500000   0.6250000), wk =   0.0019531
        k(  119) = (   0.1250000   0.7500000   0.7500000), wk =   0.0019531
        k(  120) = (   0.1250000   0.7500000   0.8750000), wk =   0.0019531
        k(  121) = (   0.1250000   0.8750000   0.0000000), wk =   0.0019531
        k(  122) = (   0.1250000   0.8750000   0.1250000), wk =   0.0019531
        k(  123) = (   0.1250000   0.8750000   0.2500000), wk =   0.0019531
        k(  124) = (   0.1250000   0.8750000   0.3750000), wk =   0.0019531
        k(  125) = (   0.1250000   0.8750000   0.5000000), wk =   0.0019531
        k(  126) = (   0.1250000   0.8750000   0.6250000), wk =   0.0019531
        k(  127) = (   0.1250000   0.8750000   0.7500000), wk =   0.0019531
        k(  128) = (   0.1250000   0.8750000   0.8750000), wk =   0.0019531
        k(  129) = (   0.2500000   0.0000000  -0.0000000), wk =   0.0019531
        k(  130) = (   0.2500000   0.0000000   0.1250000), wk =   0.0019531
        k(  131) = (   0.2500000   0.0000000   0.2500000), wk =   0.0019531
        k(  132) = (   0.2500000   0.0000000   0.3750000), wk =   0.0019531
        k(  133) = (   0.2500000   0.0000000   0.5000000), wk =   0.0019531
        k(  134) = (   0.2500000   0.0000000   0.6250000), wk =   0.0019531
        k(  135) = (   0.2500000   0.0000000   0.7500000), wk =   0.0019531
        k(  136) = (   0.2500000   0.0000000   0.8750000), wk =   0.0019531
        k(  137) = (   0.2500000   0.1250000   0.0000000), wk =   0.0019531
        k(  138) = (   0.2500000   0.1250000   0.1250000), wk =   0.0019531
        k(  139) = (   0.2500000   0.1250000   0.2500000), wk =   0.0019531
        k(  140) = (   0.2500000   0.1250000   0.3750000), wk =   0.0019531
        k(  141) = (   0.2500000   0.1250000   0.5000000), wk =   0.0019531
        k(  142) = (   0.2500000   0.1250000   0.6250000), wk =   0.0019531
        k(  143) = (   0.2500000   0.1250000   0.7500000), wk =   0.0019531
        k(  144) = (   0.2500000   0.1250000   0.8750000), wk =   0.0019531
        k(  145) = (   0.2500000   0.2500000  -0.0000000), wk =   0.0019531
        k(  146) = (   0.2500000   0.2500000   0.1250000), wk =   0.0019531
        k(  147) = (   0.2500000   0.2500000   0.2500000), wk =   0.0019531
        k(  148) = (   0.2500000   0.2500000   0.3750000), wk =   0.0019531
        k(  149) = (   0.2500000   0.2500000   0.5000000), wk =   0.0019531
        k(  150) = (   0.2500000   0.2500000   0.6250000), wk =   0.0019531
        k(  151) = (   0.2500000   0.2500000   0.7500000), wk =   0.0019531
        k(  152) = (   0.2500000   0.2500000   0.8750000), wk =   0.0019531
        k(  153) = (   0.2500000   0.3750000  -0.0000000), wk =   0.0019531
        k(  154) = (   0.2500000   0.3750000   0.1250000), wk =   0.0019531
        k(  155) = (   0.2500000   0.3750000   0.2500000), wk =   0.0019531
        k(  156) = (   0.2500000   0.3750000   0.3750000), wk =   0.0019531
        k(  157) = (   0.2500000   0.3750000   0.5000000), wk =   0.0019531
        k(  158) = (   0.2500000   0.3750000   0.6250000), wk =   0.0019531
        k(  159) = (   0.2500000   0.3750000   0.7500000), wk =   0.0019531
        k(  160) = (   0.2500000   0.3750000   0.8750000), wk =   0.0019531
        k(  161) = (   0.2500000   0.5000000   0.0000000), wk =   0.0019531
        k(  162) = (   0.2500000   0.5000000   0.1250000), wk =   0.0019531
        k(  163) = (   0.2500000   0.5000000   0.2500000), wk =   0.0019531
        k(  164) = (   0.2500000   0.5000000   0.3750000), wk =   0.0019531
        k(  165) = (   0.2500000   0.5000000   0.5000000), wk =   0.0019531
        k(  166) = (   0.2500000   0.5000000   0.6250000), wk =   0.0019531
        k(  167) = (   0.2500000   0.5000000   0.7500000), wk =   0.0019531
        k(  168) = (   0.2500000   0.5000000   0.8750000), wk =   0.0019531
        k(  169) = (   0.2500000   0.6250000   0.0000000), wk =   0.0019531
        k(  170) = (   0.2500000   0.6250000   0.1250000), wk =   0.0019531
        k(  171) = (   0.2500000   0.6250000   0.2500000), wk =   0.0019531
        k(  172) = (   0.2500000   0.6250000   0.3750000), wk =   0.0019531
        k(  173) = (   0.2500000   0.6250000   0.5000000), wk =   0.0019531
        k(  174) = (   0.2500000   0.6250000   0.6250000), wk =   0.0019531
        k(  175) = (   0.2500000   0.6250000   0.7500000), wk =   0.0019531
        k(  176) = (   0.2500000   0.6250000   0.8750000), wk =   0.0019531
        k(  177) = (   0.2500000   0.7500000  -0.0000000), wk =   0.0019531
        k(  178) = (   0.2500000   0.7500000   0.1250000), wk =   0.0019531
        k(  179) = (   0.2500000   0.7500000   0.2500000), wk =   0.0019531
        k(  180) = (   0.2500000   0.7500000   0.3750000), wk =   0.0019531
        k(  181) = (   0.2500000   0.7500000   0.5000000), wk =   0.0019531
        k(  182) = (   0.2500000   0.7500000   0.6250000), wk =   0.0019531
        k(  183) = (   0.2500000   0.7500000   0.7500000), wk =   0.0019531
        k(  184) = (   0.2500000   0.7500000   0.8750000), wk =   0.0019531
        k(  185) = (   0.2500000   0.8750000   0.0000000), wk =   0.0019531
        k(  186) = (   0.2500000   0.8750000   0.1250000), wk =   0.0019531
        k(  187) = (   0.2500000   0.8750000   0.2500000), wk =   0.0019531
        k(  188) = (   0.2500000   0.8750000   0.3750000), wk =   0.0019531
        k(  189) = (   0.2500000   0.8750000   0.5000000), wk =   0.0019531
        k(  190) = (   0.2500000   0.8750000   0.6250000), wk =   0.0019531
        k(  191) = (   0.2500000   0.8750000   0.7500000), wk =   0.0019531
        k(  192) = (   0.2500000   0.8750000   0.8750000), wk =   0.0019531
        k(  193) = (   0.3750000   0.0000000  -0.0000000), wk =   0.0019531
        k(  194) = (   0.3750000   0.0000000   0.1250000), wk =   0.0019531
        k(  195) = (   0.3750000   0.0000000   0.2500000), wk =   0.0019531
        k(  196) = (   0.3750000   0.0000000   0.3750000), wk =   0.0019531
        k(  197) = (   0.3750000   0.0000000   0.5000000), wk =   0.0019531
        k(  198) = (   0.3750000   0.0000000   0.6250000), wk =   0.0019531
        k(  199) = (   0.3750000   0.0000000   0.7500000), wk =   0.0019531
        k(  200) = (   0.3750000   0.0000000   0.8750000), wk =   0.0019531
        k(  201) = (   0.3750000   0.1250000   0.0000000), wk =   0.0019531
        k(  202) = (   0.3750000   0.1250000   0.1250000), wk =   0.0019531
        k(  203) = (   0.3750000   0.1250000   0.2500000), wk =   0.0019531
        k(  204) = (   0.3750000   0.1250000   0.3750000), wk =   0.0019531
        k(  205) = (   0.3750000   0.1250000   0.5000000), wk =   0.0019531
        k(  206) = (   0.3750000   0.1250000   0.6250000), wk =   0.0019531
        k(  207) = (   0.3750000   0.1250000   0.7500000), wk =   0.0019531
        k(  208) = (   0.3750000   0.1250000   0.8750000), wk =   0.0019531
        k(  209) = (   0.3750000   0.2500000   0.0000000), wk =   0.0019531
        k(  210) = (   0.3750000   0.2500000   0.1250000), wk =   0.0019531
        k(  211) = (   0.3750000   0.2500000   0.2500000), wk =   0.0019531
        k(  212) = (   0.3750000   0.2500000   0.3750000), wk =   0.0019531
        k(  213) = (   0.3750000   0.2500000   0.5000000), wk =   0.0019531
        k(  214) = (   0.3750000   0.2500000   0.6250000), wk =   0.0019531
        k(  215) = (   0.3750000   0.2500000   0.7500000), wk =   0.0019531
        k(  216) = (   0.3750000   0.2500000   0.8750000), wk =   0.0019531
        k(  217) = (   0.3750000   0.3750000   0.0000000), wk =   0.0019531
        k(  218) = (   0.3750000   0.3750000   0.1250000), wk =   0.0019531
        k(  219) = (   0.3750000   0.3750000   0.2500000), wk =   0.0019531
        k(  220) = (   0.3750000   0.3750000   0.3750000), wk =   0.0019531
        k(  221) = (   0.3750000   0.3750000   0.5000000), wk =   0.0019531
        k(  222) = (   0.3750000   0.3750000   0.6250000), wk =   0.0019531
        k(  223) = (   0.3750000   0.3750000   0.7500000), wk =   0.0019531
        k(  224) = (   0.3750000   0.3750000   0.8750000), wk =   0.0019531
        k(  225) = (   0.3750000   0.5000000  -0.0000000), wk =   0.0019531
        k(  226) = (   0.3750000   0.5000000   0.1250000), wk =   0.0019531
        k(  227) = (   0.3750000   0.5000000   0.2500000), wk =   0.0019531
        k(  228) = (   0.3750000   0.5000000   0.3750000), wk =   0.0019531
        k(  229) = (   0.3750000   0.5000000   0.5000000), wk =   0.0019531
        k(  230) = (   0.3750000   0.5000000   0.6250000), wk =   0.0019531
        k(  231) = (   0.3750000   0.5000000   0.7500000), wk =   0.0019531
        k(  232) = (   0.3750000   0.5000000   0.8750000), wk =   0.0019531
        k(  233) = (   0.3750000   0.6250000  -0.0000000), wk =   0.0019531
        k(  234) = (   0.3750000   0.6250000   0.1250000), wk =   0.0019531
        k(  235) = (   0.3750000   0.6250000   0.2500000), wk =   0.0019531
        k(  236) = (   0.3750000   0.6250000   0.3750000), wk =   0.0019531
        k(  237) = (   0.3750000   0.6250000   0.5000000), wk =   0.0019531
        k(  238) = (   0.3750000   0.6250000   0.6250000), wk =   0.0019531
        k(  239) = (   0.3750000   0.6250000   0.7500000), wk =   0.0019531
        k(  240) = (   0.3750000   0.6250000   0.8750000), wk =   0.0019531
        k(  241) = (   0.3750000   0.7500000  -0.0000000), wk =   0.0019531
        k(  242) = (   0.3750000   0.7500000   0.1250000), wk =   0.0019531
        k(  243) = (   0.3750000   0.7500000   0.2500000), wk =   0.0019531
        k(  244) = (   0.3750000   0.7500000   0.3750000), wk =   0.0019531
        k(  245) = (   0.3750000   0.7500000   0.5000000), wk =   0.0019531
        k(  246) = (   0.3750000   0.7500000   0.6250000), wk =   0.0019531
        k(  247) = (   0.3750000   0.7500000   0.7500000), wk =   0.0019531
        k(  248) = (   0.3750000   0.7500000   0.8750000), wk =   0.0019531
        k(  249) = (   0.3750000   0.8750000   0.0000000), wk =   0.0019531
        k(  250) = (   0.3750000   0.8750000   0.1250000), wk =   0.0019531
        k(  251) = (   0.3750000   0.8750000   0.2500000), wk =   0.0019531
        k(  252) = (   0.3750000   0.8750000   0.3750000), wk =   0.0019531
        k(  253) = (   0.3750000   0.8750000   0.5000000), wk =   0.0019531
        k(  254) = (   0.3750000   0.8750000   0.6250000), wk =   0.0019531
        k(  255) = (   0.3750000   0.8750000   0.7500000), wk =   0.0019531
        k(  256) = (   0.3750000   0.8750000   0.8750000), wk =   0.0019531
        k(  257) = (   0.5000000   0.0000000  -0.0000000), wk =   0.0019531
        k(  258) = (   0.5000000   0.0000000   0.1250000), wk =   0.0019531
        k(  259) = (   0.5000000   0.0000000   0.2500000), wk =   0.0019531
        k(  260) = (   0.5000000   0.0000000   0.3750000), wk =   0.0019531
        k(  261) = (   0.5000000   0.0000000   0.5000000), wk =   0.0019531
        k(  262) = (   0.5000000   0.0000000   0.6250000), wk =   0.0019531
        k(  263) = (   0.5000000   0.0000000   0.7500000), wk =   0.0019531
        k(  264) = (   0.5000000   0.0000000   0.8750000), wk =   0.0019531
        k(  265) = (   0.5000000   0.1250000  -0.0000000), wk =   0.0019531
        k(  266) = (   0.5000000   0.1250000   0.1250000), wk =   0.0019531
        k(  267) = (   0.5000000   0.1250000   0.2500000), wk =   0.0019531
        k(  268) = (   0.5000000   0.1250000   0.3750000), wk =   0.0019531
        k(  269) = (   0.5000000   0.1250000   0.5000000), wk =   0.0019531
        k(  270) = (   0.5000000   0.1250000   0.6250000), wk =   0.0019531
        k(  271) = (   0.5000000   0.1250000   0.7500000), wk =   0.0019531
        k(  272) = (   0.5000000   0.1250000   0.8750000), wk =   0.0019531
        k(  273) = (   0.5000000   0.2500000   0.0000000), wk =   0.0019531
        k(  274) = (   0.5000000   0.2500000   0.1250000), wk =   0.0019531
        k(  275) = (   0.5000000   0.2500000   0.2500000), wk =   0.0019531
        k(  276) = (   0.5000000   0.2500000   0.3750000), wk =   0.0019531
        k(  277) = (   0.5000000   0.2500000   0.5000000), wk =   0.0019531
        k(  278) = (   0.5000000   0.2500000   0.6250000), wk =   0.0019531
        k(  279) = (   0.5000000   0.2500000   0.7500000), wk =   0.0019531
        k(  280) = (   0.5000000   0.2500000   0.8750000), wk =   0.0019531
        k(  281) = (   0.5000000   0.3750000  -0.0000000), wk =   0.0019531
        k(  282) = (   0.5000000   0.3750000   0.1250000), wk =   0.0019531
        k(  283) = (   0.5000000   0.3750000   0.2500000), wk =   0.0019531
        k(  284) = (   0.5000000   0.3750000   0.3750000), wk =   0.0019531
        k(  285) = (   0.5000000   0.3750000   0.5000000), wk =   0.0019531
        k(  286) = (   0.5000000   0.3750000   0.6250000), wk =   0.0019531
        k(  287) = (   0.5000000   0.3750000   0.7500000), wk =   0.0019531
        k(  288) = (   0.5000000   0.3750000   0.8750000), wk =   0.0019531
        k(  289) = (   0.5000000   0.5000000  -0.0000000), wk =   0.0019531
        k(  290) = (   0.5000000   0.5000000   0.1250000), wk =   0.0019531
        k(  291) = (   0.5000000   0.5000000   0.2500000), wk =   0.0019531
        k(  292) = (   0.5000000   0.5000000   0.3750000), wk =   0.0019531
        k(  293) = (   0.5000000   0.5000000   0.5000000), wk =   0.0019531
        k(  294) = (   0.5000000   0.5000000   0.6250000), wk =   0.0019531
        k(  295) = (   0.5000000   0.5000000   0.7500000), wk =   0.0019531
        k(  296) = (   0.5000000   0.5000000   0.8750000), wk =   0.0019531
        k(  297) = (   0.5000000   0.6250000  -0.0000000), wk =   0.0019531
        k(  298) = (   0.5000000   0.6250000   0.1250000), wk =   0.0019531
        k(  299) = (   0.5000000   0.6250000   0.2500000), wk =   0.0019531
        k(  300) = (   0.5000000   0.6250000   0.3750000), wk =   0.0019531
        k(  301) = (   0.5000000   0.6250000   0.5000000), wk =   0.0019531
        k(  302) = (   0.5000000   0.6250000   0.6250000), wk =   0.0019531
        k(  303) = (   0.5000000   0.6250000   0.7500000), wk =   0.0019531
        k(  304) = (   0.5000000   0.6250000   0.8750000), wk =   0.0019531
        k(  305) = (   0.5000000   0.7500000  -0.0000000), wk =   0.0019531
        k(  306) = (   0.5000000   0.7500000   0.1250000), wk =   0.0019531
        k(  307) = (   0.5000000   0.7500000   0.2500000), wk =   0.0019531
        k(  308) = (   0.5000000   0.7500000   0.3750000), wk =   0.0019531
        k(  309) = (   0.5000000   0.7500000   0.5000000), wk =   0.0019531
        k(  310) = (   0.5000000   0.7500000   0.6250000), wk =   0.0019531
        k(  311) = (   0.5000000   0.7500000   0.7500000), wk =   0.0019531
        k(  312) = (   0.5000000   0.7500000   0.8750000), wk =   0.0019531
        k(  313) = (   0.5000000   0.8750000   0.0000000), wk =   0.0019531
        k(  314) = (   0.5000000   0.8750000   0.1250000), wk =   0.0019531
        k(  315) = (   0.5000000   0.8750000   0.2500000), wk =   0.0019531
        k(  316) = (   0.5000000   0.8750000   0.3750000), wk =   0.0019531
        k(  317) = (   0.5000000   0.8750000   0.5000000), wk =   0.0019531
        k(  318) = (   0.5000000   0.8750000   0.6250000), wk =   0.0019531
        k(  319) = (   0.5000000   0.8750000   0.7500000), wk =   0.0019531
        k(  320) = (   0.5000000   0.8750000   0.8750000), wk =   0.0019531
        k(  321) = (   0.6250000   0.0000000   0.0000000), wk =   0.0019531
        k(  322) = (   0.6250000   0.0000000   0.1250000), wk =   0.0019531
        k(  323) = (   0.6250000   0.0000000   0.2500000), wk =   0.0019531
        k(  324) = (   0.6250000   0.0000000   0.3750000), wk =   0.0019531
        k(  325) = (   0.6250000   0.0000000   0.5000000), wk =   0.0019531
        k(  326) = (   0.6250000   0.0000000   0.6250000), wk =   0.0019531
        k(  327) = (   0.6250000   0.0000000   0.7500000), wk =   0.0019531
        k(  328) = (   0.6250000   0.0000000   0.8750000), wk =   0.0019531
        k(  329) = (   0.6250000   0.1250000  -0.0000000), wk =   0.0019531
        k(  330) = (   0.6250000   0.1250000   0.1250000), wk =   0.0019531
        k(  331) = (   0.6250000   0.1250000   0.2500000), wk =   0.0019531
        k(  332) = (   0.6250000   0.1250000   0.3750000), wk =   0.0019531
        k(  333) = (   0.6250000   0.1250000   0.5000000), wk =   0.0019531
        k(  334) = (   0.6250000   0.1250000   0.6250000), wk =   0.0019531
        k(  335) = (   0.6250000   0.1250000   0.7500000), wk =   0.0019531
        k(  336) = (   0.6250000   0.1250000   0.8750000), wk =   0.0019531
        k(  337) = (   0.6250000   0.2500000   0.0000000), wk =   0.0019531
        k(  338) = (   0.6250000   0.2500000   0.1250000), wk =   0.0019531
        k(  339) = (   0.6250000   0.2500000   0.2500000), wk =   0.0019531
        k(  340) = (   0.6250000   0.2500000   0.3750000), wk =   0.0019531
        k(  341) = (   0.6250000   0.2500000   0.5000000), wk =   0.0019531
        k(  342) = (   0.6250000   0.2500000   0.6250000), wk =   0.0019531
        k(  343) = (   0.6250000   0.2500000   0.7500000), wk =   0.0019531
        k(  344) = (   0.6250000   0.2500000   0.8750000), wk =   0.0019531
        k(  345) = (   0.6250000   0.3750000  -0.0000000), wk =   0.0019531
        k(  346) = (   0.6250000   0.3750000   0.1250000), wk =   0.0019531
        k(  347) = (   0.6250000   0.3750000   0.2500000), wk =   0.0019531
        k(  348) = (   0.6250000   0.3750000   0.3750000), wk =   0.0019531
        k(  349) = (   0.6250000   0.3750000   0.5000000), wk =   0.0019531
        k(  350) = (   0.6250000   0.3750000   0.6250000), wk =   0.0019531
        k(  351) = (   0.6250000   0.3750000   0.7500000), wk =   0.0019531
        k(  352) = (   0.6250000   0.3750000   0.8750000), wk =   0.0019531
        k(  353) = (   0.6250000   0.5000000  -0.0000000), wk =   0.0019531
        k(  354) = (   0.6250000   0.5000000   0.1250000), wk =   0.0019531
        k(  355) = (   0.6250000   0.5000000   0.2500000), wk =   0.0019531
        k(  356) = (   0.6250000   0.5000000   0.3750000), wk =   0.0019531
        k(  357) = (   0.6250000   0.5000000   0.5000000), wk =   0.0019531
        k(  358) = (   0.6250000   0.5000000   0.6250000), wk =   0.0019531
        k(  359) = (   0.6250000   0.5000000   0.7500000), wk =   0.0019531
        k(  360) = (   0.6250000   0.5000000   0.8750000), wk =   0.0019531
        k(  361) = (   0.6250000   0.6250000  -0.0000000), wk =   0.0019531
        k(  362) = (   0.6250000   0.6250000   0.1250000), wk =   0.0019531
        k(  363) = (   0.6250000   0.6250000   0.2500000), wk =   0.0019531
        k(  364) = (   0.6250000   0.6250000   0.3750000), wk =   0.0019531
        k(  365) = (   0.6250000   0.6250000   0.5000000), wk =   0.0019531
        k(  366) = (   0.6250000   0.6250000   0.6250000), wk =   0.0019531
        k(  367) = (   0.6250000   0.6250000   0.7500000), wk =   0.0019531
        k(  368) = (   0.6250000   0.6250000   0.8750000), wk =   0.0019531
        k(  369) = (   0.6250000   0.7500000  -0.0000000), wk =   0.0019531
        k(  370) = (   0.6250000   0.7500000   0.1250000), wk =   0.0019531
        k(  371) = (   0.6250000   0.7500000   0.2500000), wk =   0.0019531
        k(  372) = (   0.6250000   0.7500000   0.3750000), wk =   0.0019531
        k(  373) = (   0.6250000   0.7500000   0.5000000), wk =   0.0019531
        k(  374) = (   0.6250000   0.7500000   0.6250000), wk =   0.0019531
        k(  375) = (   0.6250000   0.7500000   0.7500000), wk =   0.0019531
        k(  376) = (   0.6250000   0.7500000   0.8750000), wk =   0.0019531
        k(  377) = (   0.6250000   0.8750000   0.0000000), wk =   0.0019531
        k(  378) = (   0.6250000   0.8750000   0.1250000), wk =   0.0019531
        k(  379) = (   0.6250000   0.8750000   0.2500000), wk =   0.0019531
        k(  380) = (   0.6250000   0.8750000   0.3750000), wk =   0.0019531
        k(  381) = (   0.6250000   0.8750000   0.5000000), wk =   0.0019531
        k(  382) = (   0.6250000   0.8750000   0.6250000), wk =   0.0019531
        k(  383) = (   0.6250000   0.8750000   0.7500000), wk =   0.0019531
        k(  384) = (   0.6250000   0.8750000   0.8750000), wk =   0.0019531
        k(  385) = (   0.7500000   0.0000000  -0.0000000), wk =   0.0019531
        k(  386) = (   0.7500000   0.0000000   0.1250000), wk =   0.0019531
        k(  387) = (   0.7500000   0.0000000   0.2500000), wk =   0.0019531
        k(  388) = (   0.7500000   0.0000000   0.3750000), wk =   0.0019531
        k(  389) = (   0.7500000   0.0000000   0.5000000), wk =   0.0019531
        k(  390) = (   0.7500000   0.0000000   0.6250000), wk =   0.0019531
        k(  391) = (   0.7500000   0.0000000   0.7500000), wk =   0.0019531
        k(  392) = (   0.7500000   0.0000000   0.8750000), wk =   0.0019531
        k(  393) = (   0.7500000   0.1250000   0.0000000), wk =   0.0019531
        k(  394) = (   0.7500000   0.1250000   0.1250000), wk =   0.0019531
        k(  395) = (   0.7500000   0.1250000   0.2500000), wk =   0.0019531
        k(  396) = (   0.7500000   0.1250000   0.3750000), wk =   0.0019531
        k(  397) = (   0.7500000   0.1250000   0.5000000), wk =   0.0019531
        k(  398) = (   0.7500000   0.1250000   0.6250000), wk =   0.0019531
        k(  399) = (   0.7500000   0.1250000   0.7500000), wk =   0.0019531
        k(  400) = (   0.7500000   0.1250000   0.8750000), wk =   0.0019531
        k(  401) = (   0.7500000   0.2500000   0.0000000), wk =   0.0019531
        k(  402) = (   0.7500000   0.2500000   0.1250000), wk =   0.0019531
        k(  403) = (   0.7500000   0.2500000   0.2500000), wk =   0.0019531
        k(  404) = (   0.7500000   0.2500000   0.3750000), wk =   0.0019531
        k(  405) = (   0.7500000   0.2500000   0.5000000), wk =   0.0019531
        k(  406) = (   0.7500000   0.2500000   0.6250000), wk =   0.0019531
        k(  407) = (   0.7500000   0.2500000   0.7500000), wk =   0.0019531
        k(  408) = (   0.7500000   0.2500000   0.8750000), wk =   0.0019531
        k(  409) = (   0.7500000   0.3750000   0.0000000), wk =   0.0019531
        k(  410) = (   0.7500000   0.3750000   0.1250000), wk =   0.0019531
        k(  411) = (   0.7500000   0.3750000   0.2500000), wk =   0.0019531
        k(  412) = (   0.7500000   0.3750000   0.3750000), wk =   0.0019531
        k(  413) = (   0.7500000   0.3750000   0.5000000), wk =   0.0019531
        k(  414) = (   0.7500000   0.3750000   0.6250000), wk =   0.0019531
        k(  415) = (   0.7500000   0.3750000   0.7500000), wk =   0.0019531
        k(  416) = (   0.7500000   0.3750000   0.8750000), wk =   0.0019531
        k(  417) = (   0.7500000   0.5000000   0.0000000), wk =   0.0019531
        k(  418) = (   0.7500000   0.5000000   0.1250000), wk =   0.0019531
        k(  419) = (   0.7500000   0.5000000   0.2500000), wk =   0.0019531
        k(  420) = (   0.7500000   0.5000000   0.3750000), wk =   0.0019531
        k(  421) = (   0.7500000   0.5000000   0.5000000), wk =   0.0019531
        k(  422) = (   0.7500000   0.5000000   0.6250000), wk =   0.0019531
        k(  423) = (   0.7500000   0.5000000   0.7500000), wk =   0.0019531
        k(  424) = (   0.7500000   0.5000000   0.8750000), wk =   0.0019531
        k(  425) = (   0.7500000   0.6250000  -0.0000000), wk =   0.0019531
        k(  426) = (   0.7500000   0.6250000   0.1250000), wk =   0.0019531
        k(  427) = (   0.7500000   0.6250000   0.2500000), wk =   0.0019531
        k(  428) = (   0.7500000   0.6250000   0.3750000), wk =   0.0019531
        k(  429) = (   0.7500000   0.6250000   0.5000000), wk =   0.0019531
        k(  430) = (   0.7500000   0.6250000   0.6250000), wk =   0.0019531
        k(  431) = (   0.7500000   0.6250000   0.7500000), wk =   0.0019531
        k(  432) = (   0.7500000   0.6250000   0.8750000), wk =   0.0019531
        k(  433) = (   0.7500000   0.7500000   0.0000000), wk =   0.0019531
        k(  434) = (   0.7500000   0.7500000   0.1250000), wk =   0.0019531
        k(  435) = (   0.7500000   0.7500000   0.2500000), wk =   0.0019531
        k(  436) = (   0.7500000   0.7500000   0.3750000), wk =   0.0019531
        k(  437) = (   0.7500000   0.7500000   0.5000000), wk =   0.0019531
        k(  438) = (   0.7500000   0.7500000   0.6250000), wk =   0.0019531
        k(  439) = (   0.7500000   0.7500000   0.7500000), wk =   0.0019531
        k(  440) = (   0.7500000   0.7500000   0.8750000), wk =   0.0019531
        k(  441) = (   0.7500000   0.8750000  -0.0000000), wk =   0.0019531
        k(  442) = (   0.7500000   0.8750000   0.1250000), wk =   0.0019531
        k(  443) = (   0.7500000   0.8750000   0.2500000), wk =   0.0019531
        k(  444) = (   0.7500000   0.8750000   0.3750000), wk =   0.0019531
        k(  445) = (   0.7500000   0.8750000   0.5000000), wk =   0.0019531
        k(  446) = (   0.7500000   0.8750000   0.6250000), wk =   0.0019531
        k(  447) = (   0.7500000   0.8750000   0.7500000), wk =   0.0019531
        k(  448) = (   0.7500000   0.8750000   0.8750000), wk =   0.0019531
        k(  449) = (   0.8750000  -0.0000000  -0.0000000), wk =   0.0019531
        k(  450) = (   0.8750000  -0.0000000   0.1250000), wk =   0.0019531
        k(  451) = (   0.8750000  -0.0000000   0.2500000), wk =   0.0019531
        k(  452) = (   0.8750000  -0.0000000   0.3750000), wk =   0.0019531
        k(  453) = (   0.8750000  -0.0000000   0.5000000), wk =   0.0019531
        k(  454) = (   0.8750000  -0.0000000   0.6250000), wk =   0.0019531
        k(  455) = (   0.8750000  -0.0000000   0.7500000), wk =   0.0019531
        k(  456) = (   0.8750000  -0.0000000   0.8750000), wk =   0.0019531
        k(  457) = (   0.8750000   0.1250000  -0.0000000), wk =   0.0019531
        k(  458) = (   0.8750000   0.1250000   0.1250000), wk =   0.0019531
        k(  459) = (   0.8750000   0.1250000   0.2500000), wk =   0.0019531
        k(  460) = (   0.8750000   0.1250000   0.3750000), wk =   0.0019531
        k(  461) = (   0.8750000   0.1250000   0.5000000), wk =   0.0019531
        k(  462) = (   0.8750000   0.1250000   0.6250000), wk =   0.0019531
        k(  463) = (   0.8750000   0.1250000   0.7500000), wk =   0.0019531
        k(  464) = (   0.8750000   0.1250000   0.8750000), wk =   0.0019531
        k(  465) = (   0.8750000   0.2500000  -0.0000000), wk =   0.0019531
        k(  466) = (   0.8750000   0.2500000   0.1250000), wk =   0.0019531
        k(  467) = (   0.8750000   0.2500000   0.2500000), wk =   0.0019531
        k(  468) = (   0.8750000   0.2500000   0.3750000), wk =   0.0019531
        k(  469) = (   0.8750000   0.2500000   0.5000000), wk =   0.0019531
        k(  470) = (   0.8750000   0.2500000   0.6250000), wk =   0.0019531
        k(  471) = (   0.8750000   0.2500000   0.7500000), wk =   0.0019531
        k(  472) = (   0.8750000   0.2500000   0.8750000), wk =   0.0019531
        k(  473) = (   0.8750000   0.3750000  -0.0000000), wk =   0.0019531
        k(  474) = (   0.8750000   0.3750000   0.1250000), wk =   0.0019531
        k(  475) = (   0.8750000   0.3750000   0.2500000), wk =   0.0019531
        k(  476) = (   0.8750000   0.3750000   0.3750000), wk =   0.0019531
        k(  477) = (   0.8750000   0.3750000   0.5000000), wk =   0.0019531
        k(  478) = (   0.8750000   0.3750000   0.6250000), wk =   0.0019531
[...]
    14.1336  14.1336  15.1904  15.1904  17.1277  17.1277  18.3509  18.3509
    20.2334  20.2334  20.5208  20.5208  22.7752  22.7752  24.5455  24.5455

     occupation numbers 
     1.0000   1.0000   1.0000   1.0000   1.0000   1.0000   1.0000   1.0000
     0.0000   0.0000   0.0000   0.0000   0.0000   0.0000   0.0000   0.0000
     0.0000   0.0000   0.0000   0.0000   0.0000   0.0000   0.0000   0.0000
     0.0000   0.0000   0.0000   0.0000   0.0000   0.0000   0.0000   0.0000

          k = 0.8750 0.2165-0.6124 (   419 PWs)   bands (ev):

    -4.2663  -4.2663   0.7977   0.7977   4.2220   4.2220   4.4770   4.4770
     8.2628   8.2628   9.6268   9.6268  10.4857  10.4857  11.4893  11.4893
    15.3263  15.3263  15.3512  15.3512  15.8248  15.8248  19.3162  19.3162
    19.3693  19.3693  21.1415  21.1415  22.5923  22.5923  23.5375  23.5375

     occupation numbers 
     1.0000   1.0000   1.0000   1.0000   1.0000   1.0000   1.0000   1.0000
     0.0000   0.0000   0.0000   0.0000   0.0000   0.0000   0.0000   0.0000
     0.0000   0.0000   0.0000   0.0000   0.0000   0.0000   0.0000   0.0000
     0.0000   0.0000   0.0000   0.0000   0.0000   0.0000   0.0000   0.0000

          k = 0.8750 0.2165-0.4593 (   417 PWs)   bands (ev):

    -3.6174  -3.6174   0.2383   0.2383   2.7679   2.7679   4.1409   4.1409
     8.9018   8.9018   9.5693   9.5693  11.0213  11.0213  11.9334  11.9334
    14.9957  14.9957  15.6828  15.6828  17.9563  17.9563  18.8171  18.8171
    20.1427  20.1427  21.0703  21.0703  23.1770  23.1770  24.0998  24.0998

     occupation numbers 
     1.0000   1.0000   1.0000   1.0000   1.0000   1.0000   1.0000   1.0000
     0.0000   0.0000   0.0000   0.0000   0.0000   0.0000   0.0000   0.0000
     0.0000   0.0000   0.0000   0.0000   0.0000   0.0000   0.0000   0.0000
     0.0000   0.0000   0.0000   0.0000   0.0000   0.0000   0.0000   0.0000

          k = 0.8750 0.2165-0.3062 (   411 PWs)   bands (ev):

    -2.7356  -2.7356  -0.4910  -0.4910   1.8895   1.8895   3.5002   3.5002
     8.9049   8.9049  10.5635  10.5635  11.2106  11.2106  13.0175  13.0175
    13.8243  13.8243  15.2120  15.2120  20.0405  20.0405  20.1884  20.1884
    20.5175  20.5175  22.2002  22.2002  22.4209  22.4209  24.2906  24.2906

     occupation numbers 
     1.0000   1.0000   1.0000   1.0000   1.0000   1.0000   1.0000   1.0000
     0.0000   0.0000   0.0000   0.0000   0.0000   0.0000   0.0000   0.0000
     0.0000   0.0000   0.0000   0.0000   0.0000   0.0000   0.0000   0.0000
     0.0000   0.0000   0.0000   0.0000   0.0000   0.0000   0.0000   0.0000

          k = 0.8750 0.2165-0.1531 (   414 PWs)   bands (ev):

    -2.3914  -2.3914  -0.8492  -0.8492   2.0523   2.0523   3.1317   3.1317
     8.4337   8.4337  10.3208  10.3208  11.2542  11.2542  13.3985  13.3985
    14.3781  14.3781  17.0447  17.0447  18.1373  18.1373  20.2293  20.2293
    21.2729  21.2729  21.8877  21.8877  23.4638  23.4638  24.2396  24.2396

     occupation numbers 
     1.0000   1.0000   1.0000   1.0000   1.0000   1.0000   1.0000   1.0000
     0.0000   0.0000   0.0000   0.0000   0.0000   0.0000   0.0000   0.0000
     0.0000   0.0000   0.0000   0.0000   0.0000   0.0000   0.0000   0.0000
     0.0000   0.0000   0.0000   0.0000   0.0000   0.0000   0.0000   0.0000

          k = 0.8750 0.2165-0.0000 (   418 PWs)   bands (ev):

    -3.2471  -3.2471   0.1013   0.1013   2.7345   2.7345   3.3284   3.3284
     7.9929   7.9929   8.6995   8.6995  11.7317  11.7317  13.9464  13.9464
    16.1206  16.1206  16.1775  16.1775  18.7428  18.7428  19.2997  19.2997
    20.1182  20.1182  20.5907  20.5907  22.5368  22.5368  23.0196  23.0196

     occupation numbers 
     1.0000   1.0000   1.0000   1.0000   1.0000   1.0000   1.0000   1.0000
     0.0000   0.0000   0.0000   0.0000   0.0000   0.0000   0.0000   0.0000
     0.0000   0.0000   0.0000   0.0000   0.0000   0.0000   0.0000   0.0000
     0.0000   0.0000   0.0000   0.0000   0.0000   0.0000   0.0000   0.0000

          k = 0.8750 0.2165 0.1531 (   420 PWs)   bands (ev):

    -4.0339  -4.0339   1.1144   1.1144   3.4107   3.4107   3.8647   3.8647
     7.4044   7.4044   8.9422   8.9422  11.9566  11.9566  12.2594  12.2594
    16.0047  16.0047  16.0157  16.0157  17.5961  17.5961  19.1884  19.1884
    19.6813  19.6813  20.7716  20.7716  21.8063  21.8063  23.0030  23.0030

     occupation numbers 
     1.0000   1.0000   1.0000   1.0000   1.0000   1.0000   1.0000   1.0000
     0.0000   0.0000   0.0000   0.0000   0.0000   0.0000   0.0000   0.0000
     0.0000   0.0000   0.0000   0.0000   0.0000   0.0000   0.0000   0.0000
     0.0000   0.0000   0.0000   0.0000   0.0000   0.0000   0.0000   0.0000

          k = 0.8750 0.2165 0.3062 (   418 PWs)   bands (ev):

    -4.4887  -4.4887   1.7617   1.7617   3.3728   3.3728   4.6314   4.6314
     8.4802   8.4802   9.8558   9.8558  10.2532  10.2532  11.4916  11.4916
    13.7721  13.7721  16.1685  16.1685  16.9997  16.9997  18.0971  18.0971
    19.8334  19.8334  20.9709  20.9709  21.8221  21.8221  24.0799  24.0799

     occupation numbers 
     1.0000   1.0000   1.0000   1.0000   1.0000   1.0000   1.0000   1.0000
     0.0000   0.0000   0.0000   0.0000   0.0000   0.0000   0.0000   0.0000
     0.0000   0.0000   0.0000   0.0000   0.0000   0.0000   0.0000   0.0000
     0.0000   0.0000   0.0000   0.0000   0.0000   0.0000   0.0000   0.0000

          k = 0.8750 0.2165 0.4593 (   415 PWs)   bands (ev):

    -4.5669  -4.5669   1.4457   1.4457   3.7611   3.7611   5.2754   5.2754
     8.6862   8.6862   9.6953   9.6953   9.8810   9.8810  12.2506  12.2506
    12.5464  12.5464  15.7787  15.7787  16.0249  16.0249  18.3509  18.3509
    19.9482  19.9482  21.3340  21.3340  22.3660  22.3660  23.9025  23.9025

     occupation numbers 
     1.0000   1.0000   1.0000   1.0000   1.0000   1.0000   1.0000   1.0000
     0.0000   0.0000   0.0000   0.0000   0.0000   0.0000   0.0000   0.0000
     0.0000   0.0000   0.0000   0.0000   0.0000   0.0000   0.0000   0.0000
     0.0000   0.0000   0.0000   0.0000   0.0000   0.0000   0.0000   0.0000

          k = 0.8750 0.3608-0.6634 (   414 PWs)   bands (ev):

    -5.0664  -5.0664   2.8250   2.8250   4.7416   4.7416   4.8110   4.8110
     8.1789   8.1789   9.6539   9.6539  10.4707  10.4707  10.7881  10.7881
    13.4050  13.4050  14.2485  14.2485  15.9649  15.9649  17.5422  17.5422
    19.1055  19.1055  20.3701  20.3701  23.5083  23.5083  23.9604  23.9604

     occupation numbers 
     1.0000   1.0000   1.0000   1.0000   1.0000   1.0000   1.0000   1.0000
     0.0000   0.0000   0.0000   0.0000   0.0000   0.0000   0.0000   0.0000
     0.0000   0.0000   0.0000   0.0000   0.0000   0.0000   0.0000   0.0000
     0.0000   0.0000   0.0000   0.0000   0.0000   0.0000   0.0000   0.0000

          k = 0.8750 0.3608-0.5103 (   418 PWs)   bands (ev):

    -4.4887  -4.4887   1.7618   1.7618   3.3728   3.3728   4.6314   4.6314
     8.4802   8.4802   9.8558   9.8558  10.2532  10.2532  11.4916  11.4916
    13.7721  13.7721  16.1685  16.1685  16.9998  16.9998  18.0971  18.0971
    19.8334  19.8334  20.9709  20.9709  21.8221  21.8221  24.0799  24.0799

     occupation numbers 
     1.0000   1.0000   1.0000   1.0000   1.0000   1.0000   1.0000   1.0000
     0.0000   0.0000   0.0000   0.0000   0.0000   0.0000   0.0000   0.0000
     0.0000   0.0000   0.0000   0.0000   0.0000   0.0000   0.0000   0.0000
     0.0000   0.0000   0.0000   0.0000   0.0000   0.0000   0.0000   0.0000

          k = 0.8750 0.3608-0.3572 (   417 PWs)   bands (ev):

    -3.6175  -3.6175   0.2383   0.2383   2.7679   2.7679   4.1409   4.1409
     8.9017   8.9017   9.5693   9.5693  11.0213  11.0213  11.9334  11.9334
    14.9957  14.9957  15.6828  15.6828  17.9563  17.9563  18.8171  18.8171
    20.1427  20.1427  21.0703  21.0703  23.1770  23.1770  24.0998  24.0998

     occupation numbers 
     1.0000   1.0000   1.0000   1.0000   1.0000   1.0000   1.0000   1.0000
     0.0000   0.0000   0.0000   0.0000   0.0000   0.0000   0.0000   0.0000
     0.0000   0.0000   0.0000   0.0000   0.0000   0.0000   0.0000   0.0000
     0.0000   0.0000   0.0000   0.0000   0.0000   0.0000   0.0000   0.0000

          k = 0.8750 0.3608-0.2041 (   418 PWs)   bands (ev):

    -2.9813  -2.9813  -0.6841  -0.6841   2.6369   2.6369   3.9166   3.9166
     9.0586   9.0586   9.1883   9.1883  11.8967  11.8967  13.1325  13.1325
    13.3480  13.3480  16.5876  16.5876  17.6092  17.6092  18.3209  18.3209
    21.3362  21.3362  21.5138  21.5138  24.0010  24.0010  24.3726  24.3726

     occupation numbers 
     1.0000   1.0000   1.0000   1.0000   1.0000   1.0000   1.0000   1.0000
     0.0000   0.0000   0.0000   0.0000   0.0000   0.0000   0.0000   0.0000
     0.0000   0.0000   0.0000   0.0000   0.0000   0.0000   0.0000   0.0000
     0.0000   0.0000   0.0000   0.0000   0.0000   0.0000   0.0000   0.0000

          k = 0.8750 0.3608-0.0510 (   417 PWs)   bands (ev):

    -3.6175  -3.6175   0.2383   0.2383   2.7679   2.7679   4.1409   4.1409
     8.9017   8.9017   9.5693   9.5693  11.0213  11.0213  11.9334  11.9334
    14.9957  14.9957  15.6828  15.6828  17.9563  17.9563  18.8171  18.8171
    20.1427  20.1427  21.0703  21.0703  23.1770  23.1770  24.0998  24.0998

     occupation numbers 
     1.0000   1.0000   1.0000   1.0000   1.0000   1.0000   1.0000   1.0000
     0.0000   0.0000   0.0000   0.0000   0.0000   0.0000   0.0000   0.0000
     0.0000   0.0000   0.0000   0.0000   0.0000   0.0000   0.0000   0.0000
     0.0000   0.0000   0.0000   0.0000   0.0000   0.0000   0.0000   0.0000

          k = 0.8750 0.3608 0.1021 (   418 PWs)   bands (ev):

    -4.4887  -4.4887   1.7618   1.7618   3.3728   3.3728   4.6314   4.6314
     8.4802   8.4802   9.8558   9.8558  10.2532  10.2532  11.4916  11.4916
    13.7721  13.7721  16.1685  16.1685  16.9998  16.9998  18.0971  18.0971
    19.8334  19.8334  20.9709  20.9709  21.8221  21.8221  24.0799  24.0799

     occupation numbers 
     1.0000   1.0000   1.0000   1.0000   1.0000   1.0000   1.0000   1.0000
     0.0000   0.0000   0.0000   0.0000   0.0000   0.0000   0.0000   0.0000
     0.0000   0.0000   0.0000   0.0000   0.0000   0.0000   0.0000   0.0000
     0.0000   0.0000   0.0000   0.0000   0.0000   0.0000   0.0000   0.0000

          k = 0.8750 0.3608 0.2552 (   414 PWs)   bands (ev):

    -5.0664  -5.0664   2.8250   2.8250   4.7416   4.7416   4.8110   4.8110
     8.1789   8.1789   9.6539   9.6539  10.4707  10.4707  10.7881  10.7881
    13.4050  13.4050  14.2485  14.2485  15.9649  15.9649  17.5422  17.5422
    19.1055  19.1055  20.3701  20.3701  23.5083  23.5083  23.9604  23.9604

     occupation numbers 
     1.0000   1.0000   1.0000   1.0000   1.0000   1.0000   1.0000   1.0000
     0.0000   0.0000   0.0000   0.0000   0.0000   0.0000   0.0000   0.0000
     0.0000   0.0000   0.0000   0.0000   0.0000   0.0000   0.0000   0.0000
     0.0000   0.0000   0.0000   0.0000   0.0000   0.0000   0.0000   0.0000

          k = 0.8750 0.3608 0.4082 (   399 PWs)   bands (ev):

    -5.2642  -5.2642   3.3579   3.3579   4.4415   4.4415   5.7531   5.7531
     8.9942   8.9942   9.1411   9.1411   9.3796   9.3796  11.4615  11.4615
    12.4325  12.4325  14.0357  14.0357  15.6824  15.6824  17.1713  17.1713
    18.3329  18.3329  20.4515  20.4515  23.6229  23.6229  24.0348  24.0348

     occupation numbers 
     1.0000   1.0000   1.0000   1.0000   1.0000   1.0000   1.0000   1.0000
     0.0000   0.0000   0.0000   0.0000   0.0000   0.0000   0.0000   0.0000
     0.0000   0.0000   0.0000   0.0000   0.0000   0.0000   0.0000   0.0000
     0.0000   0.0000   0.0000   0.0000   0.0000   0.0000   0.0000   0.0000

          k = 0.8750 0.5052-0.7144 (   419 PWs)   bands (ev):

    -5.5271  -5.5271   4.6866   4.6866   5.2406   5.2406   5.2577   5.2577
     8.0439   8.0439   9.7061   9.7061   9.7143   9.7143  10.2390  10.2390
    12.5503  12.5503  14.0853  14.0853  14.9734  14.9734  17.6863  17.6863
    17.6926  17.6926  18.1889  18.1889  23.1168  23.1168  26.4904  26.4904

     occupation numbers 
     1.0000   1.0000   1.0000   1.0000   1.0000   1.0000   1.0000   1.0000
     0.0000   0.0000   0.0000   0.0000   0.0000   0.0000   0.0000   0.0000
     0.0000   0.0000   0.0000   0.0000   0.0000   0.0000   0.0000   0.0000
     0.0000   0.0000   0.0000   0.0000   0.0000   0.0000   0.0000   0.0000

          k = 0.8750 0.5052-0.5613 (   414 PWs)   bands (ev):

    -5.0664  -5.0664   2.8251   2.8251   4.7416   4.7416   4.8110   4.8110
     8.1789   8.1789   9.6539   9.6539  10.4707  10.4707  10.7881  10.7881
    13.4050  13.4050  14.2485  14.2485  15.9649  15.9649  17.5422  17.5422
    19.1055  19.1055  20.3701  20.3701  23.5083  23.5083  23.9604  23.9604

     occupation numbers 
     1.0000   1.0000   1.0000   1.0000   1.0000   1.0000   1.0000   1.0000
     0.0000   0.0000   0.0000   0.0000   0.0000   0.0000   0.0000   0.0000
     0.0000   0.0000   0.0000   0.0000   0.0000   0.0000   0.0000   0.0000
     0.0000   0.0000   0.0000   0.0000   0.0000   0.0000   0.0000   0.0000

          k = 0.8750 0.5052-0.4082 (   419 PWs)   bands (ev):

    -4.2663  -4.2663   0.7977   0.7977   4.2219   4.2219   4.4770   4.4770
     8.2628   8.2628   9.6268   9.6268  10.4857  10.4857  11.4893  11.4893
    15.3263  15.3263  15.3512  15.3512  15.8248  15.8248  19.3162  19.3162
    19.3693  19.3693  21.1415  21.1415  22.5923  22.5923  23.5375  23.5375

     occupation numbers 
     1.0000   1.0000   1.0000   1.0000   1.0000   1.0000   1.0000   1.0000
     0.0000   0.0000   0.0000   0.0000   0.0000   0.0000   0.0000   0.0000
     0.0000   0.0000   0.0000   0.0000   0.0000   0.0000   0.0000   0.0000
     0.0000   0.0000   0.0000   0.0000   0.0000   0.0000   0.0000   0.0000

          k = 0.8750 0.5052-0.2552 (   417 PWs)   bands (ev):

    -3.4249  -3.4249  -0.6365  -0.6365   3.7829   3.7829   4.4989   4.4989
     8.1986   8.1986   9.5276   9.5276  10.1353  10.1353  13.3535  13.3535
    14.9943  14.9943  16.5120  16.5120  17.4534  17.4534  17.6107  17.6107
    18.3624  18.3624  20.8979  20.8979  24.2088  24.2088  25.5706  25.5706

     occupation numbers 
     1.0000   1.0000   1.0000   1.0000   1.0000   1.0000   1.0000   1.0000
     0.0000   0.0000   0.0000   0.0000   0.0000   0.0000   0.0000   0.0000
     0.0000   0.0000   0.0000   0.0000   0.0000   0.0000   0.0000   0.0000
     0.0000   0.0000   0.0000   0.0000   0.0000   0.0000   0.0000   0.0000

          k = 0.8750 0.5052-0.1021 (   418 PWs)   bands (ev):

    -3.6631  -3.6631  -0.2742  -0.2742   3.6068   3.6068   4.7902   4.7902
     8.3458   8.3458   9.6495   9.6495   9.9027   9.9027  13.8676  13.8676
    14.1336  14.1336  15.1904  15.1904  17.1277  17.1277  18.3509  18.3509
    20.2334  20.2334  20.5208  20.5208  22.7752  22.7752  24.5455  24.5455

     occupation numbers 
     1.0000   1.0000   1.0000   1.0000   1.0000   1.0000   1.0000   1.0000
     0.0000   0.0000   0.0000   0.0000   0.0000   0.0000   0.0000   0.0000
     0.0000   0.0000   0.0000   0.0000   0.0000   0.0000   0.0000   0.0000
     0.0000   0.0000   0.0000   0.0000   0.0000   0.0000   0.0000   0.0000

          k = 0.8750 0.5052 0.0510 (   415 PWs)   bands (ev):

    -4.5669  -4.5669   1.4457   1.4457   3.7611   3.7611   5.2754   5.2754
     8.6862   8.6862   9.6953   9.6953   9.8809   9.8809  12.2506  12.2506
    12.5464  12.5464  15.7787  15.7787  16.0249  16.0249  18.3509  18.3509
    19.9482  19.9482  21.3340  21.3340  22.3660  22.3660  23.9025  23.9025

     occupation numbers 
     1.0000   1.0000   1.0000   1.0000   1.0000   1.0000   1.0000   1.0000
     0.0000   0.0000   0.0000   0.0000   0.0000   0.0000   0.0000   0.0000
     0.0000   0.0000   0.0000   0.0000   0.0000   0.0000   0.0000   0.0000
     0.0000   0.0000   0.0000   0.0000   0.0000   0.0000   0.0000   0.0000

          k = 0.8750 0.5052 0.2041 (   399 PWs)   bands (ev):

    -5.2642  -5.2642   3.3579   3.3579   4.4415   4.4415   5.7531   5.7531
     8.9942   8.9942   9.1411   9.1411   9.3796   9.3796  11.4615  11.4615
    12.4325  12.4325  14.0357  14.0357  15.6824  15.6824  17.1713  17.1713
    18.3329  18.3329  20.4515  20.4515  23.6229  23.6229  24.0348  24.0348

     occupation numbers 
     1.0000   1.0000   1.0000   1.0000   1.0000   1.0000   1.0000   1.0000
     0.0000   0.0000   0.0000   0.0000   0.0000   0.0000   0.0000   0.0000
     0.0000   0.0000   0.0000   0.0000   0.0000   0.0000   0.0000   0.0000
     0.0000   0.0000   0.0000   0.0000   0.0000   0.0000   0.0000   0.0000

          k = 0.8750 0.5052 0.3572 (   417 PWs)   bands (ev):

    -5.5948  -5.5948   4.4435   4.4435   5.7439   5.7439   5.7750   5.7750
     8.4707   8.4707   8.9924   8.9924   9.0162   9.0162  10.5569  10.5569
    13.3090  13.3090  13.3093  13.3093  14.6789  14.6789  16.6660  16.6660
    18.3781  18.3781  18.3845  18.3845  22.5295  22.5295  26.9917  26.9917

     occupation numbers 
     1.0000   1.0000   1.0000   1.0000   1.0000   1.0000   1.0000   1.0000
     0.0000   0.0000   0.0000   0.0000   0.0000   0.0000   0.0000   0.0000
     0.0000   0.0000   0.0000   0.0000   0.0000   0.0000   0.0000   0.0000
     0.0000   0.0000   0.0000   0.0000   0.0000   0.0000   0.0000   0.0000

     highest occupied, lowest unoccupied level (ev):     6.0632    6.6818

     Writing all to output data dir ./out/aiida.save/ :
     XML data file, pseudopotentials, collected wavefunctions
 
     init_run     :      0.05s CPU      0.08s WALL (       1 calls)
     electrons    :     44.62s CPU     49.50s WALL (       1 calls)

     Called by init_run:
     wfcinit      :      0.00s CPU      0.00s WALL (       1 calls)
     wfcinit:atom :      0.01s CPU      0.01s WALL (     512 calls)
     wfcinit:wfcr :      1.62s CPU      1.93s WALL (     512 calls)
     potinit      :      0.02s CPU      0.02s WALL (       1 calls)
     hinit0       :      0.03s CPU      0.05s WALL (       1 calls)

     Called by electrons:
     c_bands      :     44.61s CPU     49.49s WALL (       1 calls)
     v_of_rho     :      0.00s CPU      0.00s WALL (       1 calls)
     v_h          :      0.00s CPU      0.00s WALL (       1 calls)
     v_xc         :      0.00s CPU      0.00s WALL (       1 calls)
     newd         :      0.00s CPU      0.00s WALL (       1 calls)
     PAW_pot      :      0.01s CPU      0.02s WALL (       1 calls)

     Called by c_bands:
     init_us_2    :      0.01s CPU      0.01s WALL (     512 calls)
     init_us_2:cp :      0.01s CPU      0.01s WALL (     512 calls)
     cegterg      :     42.79s CPU     46.62s WALL (    1039 calls)

     Called by sum_band:

     Called by *egterg:
     cdiaghg      :     13.74s CPU     14.38s WALL (   15382 calls)
     cegterg:over :      1.53s CPU      1.72s WALL (   14870 calls)
     cegterg:upda :      0.46s CPU      0.48s WALL (   14870 calls)
     cegterg:last :      1.16s CPU      1.19s WALL (    8842 calls)
     h_psi        :     26.30s CPU     29.49s WALL (   16421 calls)
     s_psi        :      0.51s CPU      0.58s WALL (   16421 calls)
     g_psi        :      0.06s CPU      0.06s WALL (   14870 calls)

     Called by h_psi:
     h_psi:calbec :      0.54s CPU      0.62s WALL (   16421 calls)
     vloc_psi     :     25.08s CPU     28.12s WALL (   16421 calls)
     add_vuspsi   :      0.57s CPU      0.64s WALL (   16421 calls)

     General routines
     calbec       :      0.52s CPU      0.59s WALL (   16421 calls)
     fft          :      0.02s CPU      0.03s WALL (      19 calls)
     ffts         :      0.00s CPU      0.00s WALL (       4 calls)
     fftw         :     22.26s CPU     24.99s WALL ( 1170276 calls)
     interpolate  :      0.00s CPU      0.00s WALL (       4 calls)
     davcio       :      0.04s CPU      0.74s WALL (    1024 calls)
 
     Parallel routines

     PAW routines
     PAW_pot      :      0.01s CPU      0.02s WALL (       1 calls)
 
     PWSCF        :     45.72s CPU     53.92s WALL

 
   This run was terminated on:  14:38:23  19Apr2025            

=------------------------------------------------------------------------------=
   JOB DONE.
=------------------------------------------------------------------------------=
