
     Program PWSCF v.7.3 starts on 17Apr2025 at 15:57:45 

     This program is part of the open-source Quantum ESPRESSO suite
     for quantum simulation of materials; please cite
         "P. Giannozzi et al., J. Phys.:Condens. Matter 21 395502 (2009);
         "P. Giannozzi et al., J. Phys.:Condens. Matter 29 465901 (2017);
         "P. Giannozzi et al., J. Chem. Phys. 152 154105 (2020);
          URL http://www.quantum-espresso.org", 
     in publications or presentations arising from this work. More details at
     http://www.quantum-espresso.org/quote

     Parallel version (MPI), running on    12 processors

     MPI processes distributed on     1 nodes
     8372 MiB available memory on the printing compute node when the environment starts
 
     Reading input from aiida.in

     Current dimensions of program PWSCF are:
     Max number of different atomic species (ntypx) = 10
     Max number of k-points (npk) =  40000
     Max angular momentum in pseudopotentials (lmaxx) =  4

     Atomic positions and unit cell read from directory:
     ./out/aiida.save/
 
 
     R & G space division:  proc/nbgrp/npool/nimage =      12
     Subspace diagonalization in iterative solution of the eigenvalue problem:
     a serial algorithm will be used

 
     Parallelization info
     --------------------
     sticks:   dense  smooth     PW     G-vecs:    dense   smooth      PW
     Min          73      36     13                 1437      514     107
     Max          74      37     14                 1439      518     108
     Sum         877     439    163                17261     6183    1291
 
     Using Slab Decomposition
 


     bravais-lattice index     =            0
     lattice parameter (alat)  =       7.3075  a.u.
     unit-cell volume          =     275.9279 (a.u.)^3
     number of atoms/cell      =            2
     number of atomic types    =            1
     number of electrons       =         8.00
     number of Kohn-Sham states=           16
     kinetic-energy cutoff     =      30.0000  Ry
     charge density cutoff     =     240.0000  Ry
     Exchange-correlation= PBE
                           (   1   4   3   4   0   0   0)

     celldm(1)=   7.307523  celldm(2)=   0.000000  celldm(3)=   0.000000
     celldm(4)=   0.000000  celldm(5)=   0.000000  celldm(6)=   0.000000

     crystal axes: (cart. coord. in units of alat)
               a(1) = (   1.000000   0.000000   0.000000 )  
               a(2) = (   0.500000   0.866025   0.000000 )  
               a(3) = (   0.500000   0.288675   0.816497 )  

     reciprocal axes: (cart. coord. in units 2 pi/alat)
               b(1) = (  1.000000 -0.577350 -0.408248 )  
               b(2) = (  0.000000  1.154701 -0.408248 )  
               b(3) = (  0.000000  0.000000  1.224745 )  


     PseudoPot. # 1 for Si read from file:
     ./pseudo/Si.pbe-n-rrkjus_psl.1.0.0.UPF
     MD5 check sum: 0b0bb1205258b0d07b9f9672cf965d36
     Pseudo is Ultrasoft + core correction, Zval =  4.0
     Generated using "atomic" code by A. Dal Corso  v.5.1
     Using radial grid of 1141 points,  6 beta functions with: 
                l(1) =   0
                l(2) =   0
                l(3) =   1
                l(4) =   1
                l(5) =   2
                l(6) =   2
     Q(r) pseudized with 0 coefficients 


     atomic species   valence    mass     pseudopotential
     Si                4.00    28.08500     Si( 1.00)

     No symmetry found


                                    s                        frac. trans.

      isym =  1     identity                                     

 cryst.   s( 1) = (     1          0          0      )
                  (     0          1          0      )
                  (     0          0          1      )

 cart.    s( 1) = (  1.0000000  0.0000000  0.0000000 )
                  (  0.0000000  1.0000000  0.0000000 )
                  (  0.0000000  0.0000000  1.0000000 )


   Cartesian axes

     site n.     atom                  positions (alat units)
         1        Si     tau(   1) = (   1.5000000   0.8660254   0.6123724  )
         2        Si     tau(   2) = (   1.0000000   0.5773503   0.4082483  )

   Crystallographic axes

     site n.     atom                  positions (cryst. coord.)
         1        Si     tau(   1) = (  0.7500000  0.7500000  0.7500000  )
         2        Si     tau(   2) = (  0.5000000  0.5000000  0.5000000  )

     number of k points=   512
                       cart. coord. in units 2pi/alat
        k(    1) = (   0.0000000   0.0000000   0.0000000), wk =   0.0039062
        k(    2) = (   0.0000000   0.0000000   0.1530931), wk =   0.0039062
        k(    3) = (   0.0000000   0.0000000   0.3061862), wk =   0.0039062
        k(    4) = (   0.0000000   0.0000000   0.4592793), wk =   0.0039062
        k(    5) = (   0.0000000   0.0000000   0.6123724), wk =   0.0039062
        k(    6) = (   0.0000000   0.0000000   0.7654655), wk =   0.0039062
        k(    7) = (   0.0000000   0.0000000   0.9185587), wk =   0.0039062
        k(    8) = (   0.0000000   0.0000000   1.0716518), wk =   0.0039062
        k(    9) = (   0.0000000   0.1443376  -0.0510310), wk =   0.0039062
        k(   10) = (   0.0000000   0.1443376   0.1020621), wk =   0.0039062
        k(   11) = (   0.0000000   0.1443376   0.2551552), wk =   0.0039062
        k(   12) = (   0.0000000   0.1443376   0.4082483), wk =   0.0039062
        k(   13) = (   0.0000000   0.1443376   0.5613414), wk =   0.0039062
        k(   14) = (   0.0000000   0.1443376   0.7144345), wk =   0.0039062
        k(   15) = (   0.0000000   0.1443376   0.8675276), wk =   0.0039062
        k(   16) = (   0.0000000   0.1443376   1.0206207), wk =   0.0039062
        k(   17) = (   0.0000000   0.2886751  -0.1020621), wk =   0.0039062
        k(   18) = (   0.0000000   0.2886751   0.0510310), wk =   0.0039062
        k(   19) = (   0.0000000   0.2886751   0.2041241), wk =   0.0039062
        k(   20) = (   0.0000000   0.2886751   0.3572173), wk =   0.0039062
        k(   21) = (   0.0000000   0.2886751   0.5103104), wk =   0.0039062
        k(   22) = (   0.0000000   0.2886751   0.6634035), wk =   0.0039062
        k(   23) = (   0.0000000   0.2886751   0.8164966), wk =   0.0039062
        k(   24) = (   0.0000000   0.2886751   0.9695897), wk =   0.0039062
        k(   25) = (   0.0000000   0.4330127  -0.1530931), wk =   0.0039062
        k(   26) = (   0.0000000   0.4330127  -0.0000000), wk =   0.0039062
        k(   27) = (   0.0000000   0.4330127   0.1530931), wk =   0.0039062
        k(   28) = (   0.0000000   0.4330127   0.3061862), wk =   0.0039062
        k(   29) = (   0.0000000   0.4330127   0.4592793), wk =   0.0039062
        k(   30) = (   0.0000000   0.4330127   0.6123724), wk =   0.0039062
        k(   31) = (   0.0000000   0.4330127   0.7654655), wk =   0.0039062
        k(   32) = (   0.0000000   0.4330127   0.9185587), wk =   0.0039062
        k(   33) = (   0.0000000   0.5773503  -0.2041241), wk =   0.0039062
        k(   34) = (   0.0000000   0.5773503  -0.0510310), wk =   0.0039062
        k(   35) = (   0.0000000   0.5773503   0.1020621), wk =   0.0039062
        k(   36) = (   0.0000000   0.5773503   0.2551552), wk =   0.0039062
        k(   37) = (   0.0000000   0.5773503   0.4082483), wk =   0.0039062
        k(   38) = (   0.0000000   0.5773503   0.5613414), wk =   0.0039062
        k(   39) = (   0.0000000   0.5773503   0.7144345), wk =   0.0039062
        k(   40) = (   0.0000000   0.5773503   0.8675276), wk =   0.0039062
        k(   41) = (   0.0000000   0.7216878  -0.2551552), wk =   0.0039062
        k(   42) = (   0.0000000   0.7216878  -0.1020621), wk =   0.0039062
        k(   43) = (   0.0000000   0.7216878   0.0510310), wk =   0.0039062
        k(   44) = (   0.0000000   0.7216878   0.2041241), wk =   0.0039062
        k(   45) = (   0.0000000   0.7216878   0.3572173), wk =   0.0039062
        k(   46) = (   0.0000000   0.7216878   0.5103104), wk =   0.0039062
        k(   47) = (   0.0000000   0.7216878   0.6634035), wk =   0.0039062
        k(   48) = (   0.0000000   0.7216878   0.8164966), wk =   0.0039062
        k(   49) = (   0.0000000   0.8660254  -0.3061862), wk =   0.0039062
        k(   50) = (   0.0000000   0.8660254  -0.1530931), wk =   0.0039062
        k(   51) = (   0.0000000   0.8660254  -0.0000000), wk =   0.0039062
        k(   52) = (   0.0000000   0.8660254   0.1530931), wk =   0.0039062
        k(   53) = (   0.0000000   0.8660254   0.3061862), wk =   0.0039062
        k(   54) = (   0.0000000   0.8660254   0.4592793), wk =   0.0039062
        k(   55) = (   0.0000000   0.8660254   0.6123724), wk =   0.0039062
        k(   56) = (   0.0000000   0.8660254   0.7654655), wk =   0.0039062
        k(   57) = (   0.0000000   1.0103630  -0.3572173), wk =   0.0039062
        k(   58) = (   0.0000000   1.0103630  -0.2041241), wk =   0.0039062
        k(   59) = (   0.0000000   1.0103630  -0.0510310), wk =   0.0039062
        k(   60) = (   0.0000000   1.0103630   0.1020621), wk =   0.0039062
        k(   61) = (   0.0000000   1.0103630   0.2551552), wk =   0.0039062
        k(   62) = (   0.0000000   1.0103630   0.4082483), wk =   0.0039062
        k(   63) = (   0.0000000   1.0103630   0.5613414), wk =   0.0039062
        k(   64) = (   0.0000000   1.0103630   0.7144345), wk =   0.0039062
        k(   65) = (   0.1250000  -0.0721688  -0.0510310), wk =   0.0039062
        k(   66) = (   0.1250000  -0.0721688   0.1020621), wk =   0.0039062
        k(   67) = (   0.1250000  -0.0721688   0.2551552), wk =   0.0039062
        k(   68) = (   0.1250000  -0.0721688   0.4082483), wk =   0.0039062
        k(   69) = (   0.1250000  -0.0721688   0.5613414), wk =   0.0039062
        k(   70) = (   0.1250000  -0.0721688   0.7144345), wk =   0.0039062
        k(   71) = (   0.1250000  -0.0721688   0.8675276), wk =   0.0039062
        k(   72) = (   0.1250000  -0.0721688   1.0206207), wk =   0.0039062
        k(   73) = (   0.1250000   0.0721688  -0.1020621), wk =   0.0039062
        k(   74) = (   0.1250000   0.0721688   0.0510310), wk =   0.0039062
        k(   75) = (   0.1250000   0.0721688   0.2041241), wk =   0.0039062
        k(   76) = (   0.1250000   0.0721688   0.3572173), wk =   0.0039062
        k(   77) = (   0.1250000   0.0721688   0.5103104), wk =   0.0039062
        k(   78) = (   0.1250000   0.0721688   0.6634035), wk =   0.0039062
        k(   79) = (   0.1250000   0.0721688   0.8164966), wk =   0.0039062
        k(   80) = (   0.1250000   0.0721688   0.9695897), wk =   0.0039062
        k(   81) = (   0.1250000   0.2165064  -0.1530931), wk =   0.0039062
        k(   82) = (   0.1250000   0.2165064  -0.0000000), wk =   0.0039062
        k(   83) = (   0.1250000   0.2165064   0.1530931), wk =   0.0039062
        k(   84) = (   0.1250000   0.2165064   0.3061862), wk =   0.0039062
        k(   85) = (   0.1250000   0.2165064   0.4592793), wk =   0.0039062
        k(   86) = (   0.1250000   0.2165064   0.6123724), wk =   0.0039062
        k(   87) = (   0.1250000   0.2165064   0.7654655), wk =   0.0039062
        k(   88) = (   0.1250000   0.2165064   0.9185587), wk =   0.0039062
        k(   89) = (   0.1250000   0.3608439  -0.2041241), wk =   0.0039062
        k(   90) = (   0.1250000   0.3608439  -0.0510310), wk =   0.0039062
        k(   91) = (   0.1250000   0.3608439   0.1020621), wk =   0.0039062
        k(   92) = (   0.1250000   0.3608439   0.2551552), wk =   0.0039062
        k(   93) = (   0.1250000   0.3608439   0.4082483), wk =   0.0039062
        k(   94) = (   0.1250000   0.3608439   0.5613414), wk =   0.0039062
        k(   95) = (   0.1250000   0.3608439   0.7144345), wk =   0.0039062
        k(   96) = (   0.1250000   0.3608439   0.8675276), wk =   0.0039062
        k(   97) = (   0.1250000   0.5051815  -0.2551552), wk =   0.0039062
        k(   98) = (   0.1250000   0.5051815  -0.1020621), wk =   0.0039062
        k(   99) = (   0.1250000   0.5051815   0.0510310), wk =   0.0039062
        k(  100) = (   0.1250000   0.5051815   0.2041241), wk =   0.0039062
        k(  101) = (   0.1250000   0.5051815   0.3572173), wk =   0.0039062
        k(  102) = (   0.1250000   0.5051815   0.5103104), wk =   0.0039062
        k(  103) = (   0.1250000   0.5051815   0.6634035), wk =   0.0039062
        k(  104) = (   0.1250000   0.5051815   0.8164966), wk =   0.0039062
        k(  105) = (   0.1250000   0.6495191  -0.3061862), wk =   0.0039062
        k(  106) = (   0.1250000   0.6495191  -0.1530931), wk =   0.0039062
        k(  107) = (   0.1250000   0.6495191  -0.0000000), wk =   0.0039062
        k(  108) = (   0.1250000   0.6495191   0.1530931), wk =   0.0039062
        k(  109) = (   0.1250000   0.6495191   0.3061862), wk =   0.0039062
        k(  110) = (   0.1250000   0.6495191   0.4592793), wk =   0.0039062
        k(  111) = (   0.1250000   0.6495191   0.6123724), wk =   0.0039062
        k(  112) = (   0.1250000   0.6495191   0.7654655), wk =   0.0039062
        k(  113) = (   0.1250000   0.7938566  -0.3572173), wk =   0.0039062
        k(  114) = (   0.1250000   0.7938566  -0.2041241), wk =   0.0039062
        k(  115) = (   0.1250000   0.7938566  -0.0510310), wk =   0.0039062
        k(  116) = (   0.1250000   0.7938566   0.1020621), wk =   0.0039062
        k(  117) = (   0.1250000   0.7938566   0.2551552), wk =   0.0039062
        k(  118) = (   0.1250000   0.7938566   0.4082483), wk =   0.0039062
        k(  119) = (   0.1250000   0.7938566   0.5613414), wk =   0.0039062
        k(  120) = (   0.1250000   0.7938566   0.7144345), wk =   0.0039062
        k(  121) = (   0.1250000   0.9381942  -0.4082483), wk =   0.0039062
        k(  122) = (   0.1250000   0.9381942  -0.2551552), wk =   0.0039062
        k(  123) = (   0.1250000   0.9381942  -0.1020621), wk =   0.0039062
        k(  124) = (   0.1250000   0.9381942   0.0510310), wk =   0.0039062
        k(  125) = (   0.1250000   0.9381942   0.2041241), wk =   0.0039062
        k(  126) = (   0.1250000   0.9381942   0.3572173), wk =   0.0039062
        k(  127) = (   0.1250000   0.9381942   0.5103104), wk =   0.0039062
        k(  128) = (   0.1250000   0.9381942   0.6634035), wk =   0.0039062
        k(  129) = (   0.2500000  -0.1443376  -0.1020621), wk =   0.0039062
        k(  130) = (   0.2500000  -0.1443376   0.0510310), wk =   0.0039062
        k(  131) = (   0.2500000  -0.1443376   0.2041241), wk =   0.0039062
        k(  132) = (   0.2500000  -0.1443376   0.3572173), wk =   0.0039062
        k(  133) = (   0.2500000  -0.1443376   0.5103104), wk =   0.0039062
        k(  134) = (   0.2500000  -0.1443376   0.6634035), wk =   0.0039062
        k(  135) = (   0.2500000  -0.1443376   0.8164966), wk =   0.0039062
        k(  136) = (   0.2500000  -0.1443376   0.9695897), wk =   0.0039062
        k(  137) = (   0.2500000   0.0000000  -0.1530931), wk =   0.0039062
        k(  138) = (   0.2500000   0.0000000   0.0000000), wk =   0.0039062
        k(  139) = (   0.2500000   0.0000000   0.1530931), wk =   0.0039062
        k(  140) = (   0.2500000   0.0000000   0.3061862), wk =   0.0039062
        k(  141) = (   0.2500000   0.0000000   0.4592793), wk =   0.0039062
        k(  142) = (   0.2500000   0.0000000   0.6123724), wk =   0.0039062
        k(  143) = (   0.2500000   0.0000000   0.7654655), wk =   0.0039062
        k(  144) = (   0.2500000   0.0000000   0.9185587), wk =   0.0039062
        k(  145) = (   0.2500000   0.1443376  -0.2041241), wk =   0.0039062
        k(  146) = (   0.2500000   0.1443376  -0.0510310), wk =   0.0039062
        k(  147) = (   0.2500000   0.1443376   0.1020621), wk =   0.0039062
        k(  148) = (   0.2500000   0.1443376   0.2551552), wk =   0.0039062
        k(  149) = (   0.2500000   0.1443376   0.4082483), wk =   0.0039062
        k(  150) = (   0.2500000   0.1443376   0.5613414), wk =   0.0039062
        k(  151) = (   0.2500000   0.1443376   0.7144345), wk =   0.0039062
        k(  152) = (   0.2500000   0.1443376   0.8675276), wk =   0.0039062
        k(  153) = (   0.2500000   0.2886751  -0.2551552), wk =   0.0039062
        k(  154) = (   0.2500000   0.2886751  -0.1020621), wk =   0.0039062
        k(  155) = (   0.2500000   0.2886751   0.0510310), wk =   0.0039062
        k(  156) = (   0.2500000   0.2886751   0.2041241), wk =   0.0039062
        k(  157) = (   0.2500000   0.2886751   0.3572173), wk =   0.0039062
        k(  158) = (   0.2500000   0.2886751   0.5103104), wk =   0.0039062
        k(  159) = (   0.2500000   0.2886751   0.6634035), wk =   0.0039062
        k(  160) = (   0.2500000   0.2886751   0.8164966), wk =   0.0039062
        k(  161) = (   0.2500000   0.4330127  -0.3061862), wk =   0.0039062
        k(  162) = (   0.2500000   0.4330127  -0.1530931), wk =   0.0039062
        k(  163) = (   0.2500000   0.4330127  -0.0000000), wk =   0.0039062
        k(  164) = (   0.2500000   0.4330127   0.1530931), wk =   0.0039062
        k(  165) = (   0.2500000   0.4330127   0.3061862), wk =   0.0039062
        k(  166) = (   0.2500000   0.4330127   0.4592793), wk =   0.0039062
        k(  167) = (   0.2500000   0.4330127   0.6123724), wk =   0.0039062
        k(  168) = (   0.2500000   0.4330127   0.7654655), wk =   0.0039062
        k(  169) = (   0.2500000   0.5773503  -0.3572173), wk =   0.0039062
        k(  170) = (   0.2500000   0.5773503  -0.2041241), wk =   0.0039062
        k(  171) = (   0.2500000   0.5773503  -0.0510310), wk =   0.0039062
        k(  172) = (   0.2500000   0.5773503   0.1020621), wk =   0.0039062
        k(  173) = (   0.2500000   0.5773503   0.2551552), wk =   0.0039062
        k(  174) = (   0.2500000   0.5773503   0.4082483), wk =   0.0039062
        k(  175) = (   0.2500000   0.5773503   0.5613414), wk =   0.0039062
        k(  176) = (   0.2500000   0.5773503   0.7144345), wk =   0.0039062
        k(  177) = (   0.2500000   0.7216878  -0.4082483), wk =   0.0039062
        k(  178) = (   0.2500000   0.7216878  -0.2551552), wk =   0.0039062
        k(  179) = (   0.2500000   0.7216878  -0.1020621), wk =   0.0039062
        k(  180) = (   0.2500000   0.7216878   0.0510310), wk =   0.0039062
        k(  181) = (   0.2500000   0.7216878   0.2041241), wk =   0.0039062
        k(  182) = (   0.2500000   0.7216878   0.3572173), wk =   0.0039062
        k(  183) = (   0.2500000   0.7216878   0.5103104), wk =   0.0039062
        k(  184) = (   0.2500000   0.7216878   0.6634035), wk =   0.0039062
        k(  185) = (   0.2500000   0.8660254  -0.4592793), wk =   0.0039062
        k(  186) = (   0.2500000   0.8660254  -0.3061862), wk =   0.0039062
        k(  187) = (   0.2500000   0.8660254  -0.1530931), wk =   0.0039062
        k(  188) = (   0.2500000   0.8660254  -0.0000000), wk =   0.0039062
        k(  189) = (   0.2500000   0.8660254   0.1530931), wk =   0.0039062
        k(  190) = (   0.2500000   0.8660254   0.3061862), wk =   0.0039062
        k(  191) = (   0.2500000   0.8660254   0.4592793), wk =   0.0039062
        k(  192) = (   0.2500000   0.8660254   0.6123724), wk =   0.0039062
        k(  193) = (   0.3750000  -0.2165064  -0.1530931), wk =   0.0039062
        k(  194) = (   0.3750000  -0.2165064   0.0000000), wk =   0.0039062
        k(  195) = (   0.3750000  -0.2165064   0.1530931), wk =   0.0039062
        k(  196) = (   0.3750000  -0.2165064   0.3061862), wk =   0.0039062
        k(  197) = (   0.3750000  -0.2165064   0.4592793), wk =   0.0039062
        k(  198) = (   0.3750000  -0.2165064   0.6123724), wk =   0.0039062
        k(  199) = (   0.3750000  -0.2165064   0.7654655), wk =   0.0039062
        k(  200) = (   0.3750000  -0.2165064   0.9185587), wk =   0.0039062
        k(  201) = (   0.3750000  -0.0721688  -0.2041241), wk =   0.0039062
        k(  202) = (   0.3750000  -0.0721688  -0.0510310), wk =   0.0039062
        k(  203) = (   0.3750000  -0.0721688   0.1020621), wk =   0.0039062
        k(  204) = (   0.3750000  -0.0721688   0.2551552), wk =   0.0039062
        k(  205) = (   0.3750000  -0.0721688   0.4082483), wk =   0.0039062
        k(  206) = (   0.3750000  -0.0721688   0.5613414), wk =   0.0039062
        k(  207) = (   0.3750000  -0.0721688   0.7144345), wk =   0.0039062
        k(  208) = (   0.3750000  -0.0721688   0.8675276), wk =   0.0039062
        k(  209) = (   0.3750000   0.0721688  -0.2551552), wk =   0.0039062
        k(  210) = (   0.3750000   0.0721688  -0.1020621), wk =   0.0039062
        k(  211) = (   0.3750000   0.0721688   0.0510310), wk =   0.0039062
        k(  212) = (   0.3750000   0.0721688   0.2041241), wk =   0.0039062
        k(  213) = (   0.3750000   0.0721688   0.3572173), wk =   0.0039062
        k(  214) = (   0.3750000   0.0721688   0.5103104), wk =   0.0039062
        k(  215) = (   0.3750000   0.0721688   0.6634035), wk =   0.0039062
        k(  216) = (   0.3750000   0.0721688   0.8164966), wk =   0.0039062
        k(  217) = (   0.3750000   0.2165064  -0.3061862), wk =   0.0039062
        k(  218) = (   0.3750000   0.2165064  -0.1530931), wk =   0.0039062
        k(  219) = (   0.3750000   0.2165064  -0.0000000), wk =   0.0039062
        k(  220) = (   0.3750000   0.2165064   0.1530931), wk =   0.0039062
        k(  221) = (   0.3750000   0.2165064   0.3061862), wk =   0.0039062
        k(  222) = (   0.3750000   0.2165064   0.4592793), wk =   0.0039062
        k(  223) = (   0.3750000   0.2165064   0.6123724), wk =   0.0039062
        k(  224) = (   0.3750000   0.2165064   0.7654655), wk =   0.0039062
        k(  225) = (   0.3750000   0.3608439  -0.3572173), wk =   0.0039062
        k(  226) = (   0.3750000   0.3608439  -0.2041241), wk =   0.0039062
        k(  227) = (   0.3750000   0.3608439  -0.0510310), wk =   0.0039062
        k(  228) = (   0.3750000   0.3608439   0.1020621), wk =   0.0039062
        k(  229) = (   0.3750000   0.3608439   0.2551552), wk =   0.0039062
        k(  230) = (   0.3750000   0.3608439   0.4082483), wk =   0.0039062
        k(  231) = (   0.3750000   0.3608439   0.5613414), wk =   0.0039062
        k(  232) = (   0.3750000   0.3608439   0.7144345), wk =   0.0039062
        k(  233) = (   0.3750000   0.5051815  -0.4082483), wk =   0.0039062
        k(  234) = (   0.3750000   0.5051815  -0.2551552), wk =   0.0039062
        k(  235) = (   0.3750000   0.5051815  -0.1020621), wk =   0.0039062
        k(  236) = (   0.3750000   0.5051815   0.0510310), wk =   0.0039062
        k(  237) = (   0.3750000   0.5051815   0.2041241), wk =   0.0039062
        k(  238) = (   0.3750000   0.5051815   0.3572173), wk =   0.0039062
        k(  239) = (   0.3750000   0.5051815   0.5103104), wk =   0.0039062
        k(  240) = (   0.3750000   0.5051815   0.6634035), wk =   0.0039062
        k(  241) = (   0.3750000   0.6495191  -0.4592793), wk =   0.0039062
        k(  242) = (   0.3750000   0.6495191  -0.3061862), wk =   0.0039062
        k(  243) = (   0.3750000   0.6495191  -0.1530931), wk =   0.0039062
        k(  244) = (   0.3750000   0.6495191  -0.0000000), wk =   0.0039062
        k(  245) = (   0.3750000   0.6495191   0.1530931), wk =   0.0039062
        k(  246) = (   0.3750000   0.6495191   0.3061862), wk =   0.0039062
        k(  247) = (   0.3750000   0.6495191   0.4592793), wk =   0.0039062
        k(  248) = (   0.3750000   0.6495191   0.6123724), wk =   0.0039062
        k(  249) = (   0.3750000   0.7938566  -0.5103104), wk =   0.0039062
        k(  250) = (   0.3750000   0.7938566  -0.3572173), wk =   0.0039062
        k(  251) = (   0.3750000   0.7938566  -0.2041241), wk =   0.0039062
        k(  252) = (   0.3750000   0.7938566  -0.0510310), wk =   0.0039062
        k(  253) = (   0.3750000   0.7938566   0.1020621), wk =   0.0039062
        k(  254) = (   0.3750000   0.7938566   0.2551552), wk =   0.0039062
        k(  255) = (   0.3750000   0.7938566   0.4082483), wk =   0.0039062
        k(  256) = (   0.3750000   0.7938566   0.5613414), wk =   0.0039062
        k(  257) = (   0.5000000  -0.2886751  -0.2041241), wk =   0.0039062
        k(  258) = (   0.5000000  -0.2886751  -0.0510310), wk =   0.0039062
        k(  259) = (   0.5000000  -0.2886751   0.1020621), wk =   0.0039062
        k(  260) = (   0.5000000  -0.2886751   0.2551552), wk =   0.0039062
        k(  261) = (   0.5000000  -0.2886751   0.4082483), wk =   0.0039062
        k(  262) = (   0.5000000  -0.2886751   0.5613414), wk =   0.0039062
        k(  263) = (   0.5000000  -0.2886751   0.7144345), wk =   0.0039062
        k(  264) = (   0.5000000  -0.2886751   0.8675276), wk =   0.0039062
        k(  265) = (   0.5000000  -0.1443376  -0.2551552), wk =   0.0039062
        k(  266) = (   0.5000000  -0.1443376  -0.1020621), wk =   0.0039062
        k(  267) = (   0.5000000  -0.1443376   0.0510310), wk =   0.0039062
        k(  268) = (   0.5000000  -0.1443376   0.2041241), wk =   0.0039062
        k(  269) = (   0.5000000  -0.1443376   0.3572173), wk =   0.0039062
        k(  270) = (   0.5000000  -0.1443376   0.5103104), wk =   0.0039062
        k(  271) = (   0.5000000  -0.1443376   0.6634035), wk =   0.0039062
        k(  272) = (   0.5000000  -0.1443376   0.8164966), wk =   0.0039062
        k(  273) = (   0.5000000   0.0000000  -0.3061862), wk =   0.0039062
        k(  274) = (   0.5000000   0.0000000  -0.1530931), wk =   0.0039062
        k(  275) = (   0.5000000   0.0000000   0.0000000), wk =   0.0039062
        k(  276) = (   0.5000000   0.0000000   0.1530931), wk =   0.0039062
        k(  277) = (   0.5000000   0.0000000   0.3061862), wk =   0.0039062
        k(  278) = (   0.5000000   0.0000000   0.4592793), wk =   0.0039062
        k(  279) = (   0.5000000   0.0000000   0.6123724), wk =   0.0039062
        k(  280) = (   0.5000000   0.0000000   0.7654655), wk =   0.0039062
        k(  281) = (   0.5000000   0.1443376  -0.3572173), wk =   0.0039062
        k(  282) = (   0.5000000   0.1443376  -0.2041241), wk =   0.0039062
        k(  283) = (   0.5000000   0.1443376  -0.0510310), wk =   0.0039062
        k(  284) = (   0.5000000   0.1443376   0.1020621), wk =   0.0039062
        k(  285) = (   0.5000000   0.1443376   0.2551552), wk =   0.0039062
        k(  286) = (   0.5000000   0.1443376   0.4082483), wk =   0.0039062
        k(  287) = (   0.5000000   0.1443376   0.5613414), wk =   0.0039062
        k(  288) = (   0.5000000   0.1443376   0.7144345), wk =   0.0039062
        k(  289) = (   0.5000000   0.2886751  -0.4082483), wk =   0.0039062
        k(  290) = (   0.5000000   0.2886751  -0.2551552), wk =   0.0039062
        k(  291) = (   0.5000000   0.2886751  -0.1020621), wk =   0.0039062
        k(  292) = (   0.5000000   0.2886751   0.0510310), wk =   0.0039062
        k(  293) = (   0.5000000   0.2886751   0.2041241), wk =   0.0039062
        k(  294) = (   0.5000000   0.2886751   0.3572173), wk =   0.0039062
        k(  295) = (   0.5000000   0.2886751   0.5103104), wk =   0.0039062
        k(  296) = (   0.5000000   0.2886751   0.6634035), wk =   0.0039062
        k(  297) = (   0.5000000   0.4330127  -0.4592793), wk =   0.0039062
        k(  298) = (   0.5000000   0.4330127  -0.3061862), wk =   0.0039062
        k(  299) = (   0.5000000   0.4330127  -0.1530931), wk =   0.0039062
        k(  300) = (   0.5000000   0.4330127  -0.0000000), wk =   0.0039062
        k(  301) = (   0.5000000   0.4330127   0.1530931), wk =   0.0039062
        k(  302) = (   0.5000000   0.4330127   0.3061862), wk =   0.0039062
        k(  303) = (   0.5000000   0.4330127   0.4592793), wk =   0.0039062
        k(  304) = (   0.5000000   0.4330127   0.6123724), wk =   0.0039062
        k(  305) = (   0.5000000   0.5773503  -0.5103104), wk =   0.0039062
        k(  306) = (   0.5000000   0.5773503  -0.3572173), wk =   0.0039062
        k(  307) = (   0.5000000   0.5773503  -0.2041241), wk =   0.0039062
        k(  308) = (   0.5000000   0.5773503  -0.0510310), wk =   0.0039062
        k(  309) = (   0.5000000   0.5773503   0.1020621), wk =   0.0039062
        k(  310) = (   0.5000000   0.5773503   0.2551552), wk =   0.0039062
        k(  311) = (   0.5000000   0.5773503   0.4082483), wk =   0.0039062
        k(  312) = (   0.5000000   0.5773503   0.5613414), wk =   0.0039062
        k(  313) = (   0.5000000   0.7216878  -0.5613414), wk =   0.0039062
        k(  314) = (   0.5000000   0.7216878  -0.4082483), wk =   0.0039062
        k(  315) = (   0.5000000   0.7216878  -0.2551552), wk =   0.0039062
        k(  316) = (   0.5000000   0.7216878  -0.1020621), wk =   0.0039062
        k(  317) = (   0.5000000   0.7216878   0.0510310), wk =   0.0039062
        k(  318) = (   0.5000000   0.7216878   0.2041241), wk =   0.0039062
        k(  319) = (   0.5000000   0.7216878   0.3572173), wk =   0.0039062
        k(  320) = (   0.5000000   0.7216878   0.5103104), wk =   0.0039062
        k(  321) = (   0.6250000  -0.3608439  -0.2551552), wk =   0.0039062
        k(  322) = (   0.6250000  -0.3608439  -0.1020621), wk =   0.0039062
        k(  323) = (   0.6250000  -0.3608439   0.0510310), wk =   0.0039062
        k(  324) = (   0.6250000  -0.3608439   0.2041241), wk =   0.0039062
        k(  325) = (   0.6250000  -0.3608439   0.3572173), wk =   0.0039062
        k(  326) = (   0.6250000  -0.3608439   0.5103104), wk =   0.0039062
        k(  327) = (   0.6250000  -0.3608439   0.6634035), wk =   0.0039062
        k(  328) = (   0.6250000  -0.3608439   0.8164966), wk =   0.0039062
        k(  329) = (   0.6250000  -0.2165064  -0.3061862), wk =   0.0039062
        k(  330) = (   0.6250000  -0.2165064  -0.1530931), wk =   0.0039062
        k(  331) = (   0.6250000  -0.2165064   0.0000000), wk =   0.0039062
        k(  332) = (   0.6250000  -0.2165064   0.1530931), wk =   0.0039062
        k(  333) = (   0.6250000  -0.2165064   0.3061862), wk =   0.0039062
        k(  334) = (   0.6250000  -0.2165064   0.4592793), wk =   0.0039062
        k(  335) = (   0.6250000  -0.2165064   0.6123724), wk =   0.0039062
        k(  336) = (   0.6250000  -0.2165064   0.7654655), wk =   0.0039062
        k(  337) = (   0.6250000  -0.0721688  -0.3572173), wk =   0.0039062
        k(  338) = (   0.6250000  -0.0721688  -0.2041241), wk =   0.0039062
        k(  339) = (   0.6250000  -0.0721688  -0.0510310), wk =   0.0039062
        k(  340) = (   0.6250000  -0.0721688   0.1020621), wk =   0.0039062
        k(  341) = (   0.6250000  -0.0721688   0.2551552), wk =   0.0039062
        k(  342) = (   0.6250000  -0.0721688   0.4082483), wk =   0.0039062
        k(  343) = (   0.6250000  -0.0721688   0.5613414), wk =   0.0039062
        k(  344) = (   0.6250000  -0.0721688   0.7144345), wk =   0.0039062
        k(  345) = (   0.6250000   0.0721688  -0.4082483), wk =   0.0039062
        k(  346) = (   0.6250000   0.0721688  -0.2551552), wk =   0.0039062
        k(  347) = (   0.6250000   0.0721688  -0.1020621), wk =   0.0039062
        k(  348) = (   0.6250000   0.0721688   0.0510310), wk =   0.0039062
        k(  349) = (   0.6250000   0.0721688   0.2041241), wk =   0.0039062
        k(  350) = (   0.6250000   0.0721688   0.3572173), wk =   0.0039062
        k(  351) = (   0.6250000   0.0721688   0.5103104), wk =   0.0039062
        k(  352) = (   0.6250000   0.0721688   0.6634035), wk =   0.0039062
        k(  353) = (   0.6250000   0.2165064  -0.4592793), wk =   0.0039062
        k(  354) = (   0.6250000   0.2165064  -0.3061862), wk =   0.0039062
        k(  355) = (   0.6250000   0.2165064  -0.1530931), wk =   0.0039062
        k(  356) = (   0.6250000   0.2165064  -0.0000000), wk =   0.0039062
        k(  357) = (   0.6250000   0.2165064   0.1530931), wk =   0.0039062
        k(  358) = (   0.6250000   0.2165064   0.3061862), wk =   0.0039062
        k(  359) = (   0.6250000   0.2165064   0.4592793), wk =   0.0039062
        k(  360) = (   0.6250000   0.2165064   0.6123724), wk =   0.0039062
        k(  361) = (   0.6250000   0.3608439  -0.5103104), wk =   0.0039062
        k(  362) = (   0.6250000   0.3608439  -0.3572173), wk =   0.0039062
        k(  363) = (   0.6250000   0.3608439  -0.2041241), wk =   0.0039062
        k(  364) = (   0.6250000   0.3608439  -0.0510310), wk =   0.0039062
        k(  365) = (   0.6250000   0.3608439   0.1020621), wk =   0.0039062
        k(  366) = (   0.6250000   0.3608439   0.2551552), wk =   0.0039062
        k(  367) = (   0.6250000   0.3608439   0.4082483), wk =   0.0039062
        k(  368) = (   0.6250000   0.3608439   0.5613414), wk =   0.0039062
        k(  369) = (   0.6250000   0.5051815  -0.5613414), wk =   0.0039062
        k(  370) = (   0.6250000   0.5051815  -0.4082483), wk =   0.0039062
        k(  371) = (   0.6250000   0.5051815  -0.2551552), wk =   0.0039062
        k(  372) = (   0.6250000   0.5051815  -0.1020621), wk =   0.0039062
        k(  373) = (   0.6250000   0.5051815   0.0510310), wk =   0.0039062
        k(  374) = (   0.6250000   0.5051815   0.2041241), wk =   0.0039062
        k(  375) = (   0.6250000   0.5051815   0.3572173), wk =   0.0039062
        k(  376) = (   0.6250000   0.5051815   0.5103104), wk =   0.0039062
        k(  377) = (   0.6250000   0.6495191  -0.6123724), wk =   0.0039062
        k(  378) = (   0.6250000   0.6495191  -0.4592793), wk =   0.0039062
        k(  379) = (   0.6250000   0.6495191  -0.3061862), wk =   0.0039062
        k(  380) = (   0.6250000   0.6495191  -0.1530931), wk =   0.0039062
        k(  381) = (   0.6250000   0.6495191  -0.0000000), wk =   0.0039062
        k(  382) = (   0.6250000   0.6495191   0.1530931), wk =   0.0039062
        k(  383) = (   0.6250000   0.6495191   0.3061862), wk =   0.0039062
        k(  384) = (   0.6250000   0.6495191   0.4592793), wk =   0.0039062
        k(  385) = (   0.7500000  -0.4330127  -0.3061862), wk =   0.0039062
        k(  386) = (   0.7500000  -0.4330127  -0.1530931), wk =   0.0039062
        k(  387) = (   0.7500000  -0.4330127   0.0000000), wk =   0.0039062
        k(  388) = (   0.7500000  -0.4330127   0.1530931), wk =   0.0039062
        k(  389) = (   0.7500000  -0.4330127   0.3061862), wk =   0.0039062
        k(  390) = (   0.7500000  -0.4330127   0.4592793), wk =   0.0039062
        k(  391) = (   0.7500000  -0.4330127   0.6123724), wk =   0.0039062
        k(  392) = (   0.7500000  -0.4330127   0.7654655), wk =   0.0039062
        k(  393) = (   0.7500000  -0.2886751  -0.3572173), wk =   0.0039062
        k(  394) = (   0.7500000  -0.2886751  -0.2041241), wk =   0.0039062
        k(  395) = (   0.7500000  -0.2886751  -0.0510310), wk =   0.0039062
        k(  396) = (   0.7500000  -0.2886751   0.1020621), wk =   0.0039062
        k(  397) = (   0.7500000  -0.2886751   0.2551552), wk =   0.0039062
        k(  398) = (   0.7500000  -0.2886751   0.4082483), wk =   0.0039062
        k(  399) = (   0.7500000  -0.2886751   0.5613414), wk =   0.0039062
        k(  400) = (   0.7500000  -0.2886751   0.7144345), wk =   0.0039062
        k(  401) = (   0.7500000  -0.1443376  -0.4082483), wk =   0.0039062
        k(  402) = (   0.7500000  -0.1443376  -0.2551552), wk =   0.0039062
        k(  403) = (   0.7500000  -0.1443376  -0.1020621), wk =   0.0039062
        k(  404) = (   0.7500000  -0.1443376   0.0510310), wk =   0.0039062
        k(  405) = (   0.7500000  -0.1443376   0.2041241), wk =   0.0039062
        k(  406) = (   0.7500000  -0.1443376   0.3572173), wk =   0.0039062
        k(  407) = (   0.7500000  -0.1443376   0.5103104), wk =   0.0039062
        k(  408) = (   0.7500000  -0.1443376   0.6634035), wk =   0.0039062
        k(  409) = (   0.7500000   0.0000000  -0.4592793), wk =   0.0039062
        k(  410) = (   0.7500000   0.0000000  -0.3061862), wk =   0.0039062
        k(  411) = (   0.7500000   0.0000000  -0.1530931), wk =   0.0039062
        k(  412) = (   0.7500000   0.0000000  -0.0000000), wk =   0.0039062
        k(  413) = (   0.7500000   0.0000000   0.1530931), wk =   0.0039062
        k(  414) = (   0.7500000   0.0000000   0.3061862), wk =   0.0039062
        k(  415) = (   0.7500000   0.0000000   0.4592793), wk =   0.0039062
        k(  416) = (   0.7500000   0.0000000   0.6123724), wk =   0.0039062
        k(  417) = (   0.7500000   0.1443376  -0.5103104), wk =   0.0039062
        k(  418) = (   0.7500000   0.1443376  -0.3572173), wk =   0.0039062
        k(  419) = (   0.7500000   0.1443376  -0.2041241), wk =   0.0039062
        k(  420) = (   0.7500000   0.1443376  -0.0510310), wk =   0.0039062
        k(  421) = (   0.7500000   0.1443376   0.1020621), wk =   0.0039062
        k(  422) = (   0.7500000   0.1443376   0.2551552), wk =   0.0039062
        k(  423) = (   0.7500000   0.1443376   0.4082483), wk =   0.0039062
        k(  424) = (   0.7500000   0.1443376   0.5613414), wk =   0.0039062
        k(  425) = (   0.7500000   0.2886751  -0.5613414), wk =   0.0039062
        k(  426) = (   0.7500000   0.2886751  -0.4082483), wk =   0.0039062
        k(  427) = (   0.7500000   0.2886751  -0.2551552), wk =   0.0039062
        k(  428) = (   0.7500000   0.2886751  -0.1020621), wk =   0.0039062
        k(  429) = (   0.7500000   0.2886751   0.0510310), wk =   0.0039062
        k(  430) = (   0.7500000   0.2886751   0.2041241), wk =   0.0039062
        k(  431) = (   0.7500000   0.2886751   0.3572173), wk =   0.0039062
        k(  432) = (   0.7500000   0.2886751   0.5103104), wk =   0.0039062
        k(  433) = (   0.7500000   0.4330127  -0.6123724), wk =   0.0039062
        k(  434) = (   0.7500000   0.4330127  -0.4592793), wk =   0.0039062
        k(  435) = (   0.7500000   0.4330127  -0.3061862), wk =   0.0039062
        k(  436) = (   0.7500000   0.4330127  -0.1530931), wk =   0.0039062
        k(  437) = (   0.7500000   0.4330127  -0.0000000), wk =   0.0039062
        k(  438) = (   0.7500000   0.4330127   0.1530931), wk =   0.0039062
        k(  439) = (   0.7500000   0.4330127   0.3061862), wk =   0.0039062
        k(  440) = (   0.7500000   0.4330127   0.4592793), wk =   0.0039062
        k(  441) = (   0.7500000   0.5773503  -0.6634035), wk =   0.0039062
        k(  442) = (   0.7500000   0.5773503  -0.5103104), wk =   0.0039062
        k(  443) = (   0.7500000   0.5773503  -0.3572173), wk =   0.0039062
        k(  444) = (   0.7500000   0.5773503  -0.2041241), wk =   0.0039062
        k(  445) = (   0.7500000   0.5773503  -0.0510310), wk =   0.0039062
        k(  446) = (   0.7500000   0.5773503   0.1020621), wk =   0.0039062
        k(  447) = (   0.7500000   0.5773503   0.2551552), wk =   0.0039062
        k(  448) = (   0.7500000   0.5773503   0.4082483), wk =   0.0039062
        k(  449) = (   0.8750000  -0.5051815  -0.3572173), wk =   0.0039062
        k(  450) = (   0.8750000  -0.5051815  -0.2041241), wk =   0.0039062
        k(  451) = (   0.8750000  -0.5051815  -0.0510310), wk =   0.0039062
        k(  452) = (   0.8750000  -0.5051815   0.1020621), wk =   0.0039062
        k(  453) = (   0.8750000  -0.5051815   0.2551552), wk =   0.0039062
        k(  454) = (   0.8750000  -0.5051815   0.4082483), wk =   0.0039062
        k(  455) = (   0.8750000  -0.5051815   0.5613414), wk =   0.0039062
        k(  456) = (   0.8750000  -0.5051815   0.7144345), wk =   0.0039062
        k(  457) = (   0.8750000  -0.3608439  -0.4082483), wk =   0.0039062
        k(  458) = (   0.8750000  -0.3608439  -0.2551552), wk =   0.0039062
        k(  459) = (   0.8750000  -0.3608439  -0.1020621), wk =   0.0039062
        k(  460) = (   0.8750000  -0.3608439   0.0510310), wk =   0.0039062
        k(  461) = (   0.8750000  -0.3608439   0.2041241), wk =   0.0039062
        k(  462) = (   0.8750000  -0.3608439   0.3572173), wk =   0.0039062
        k(  463) = (   0.8750000  -0.3608439   0.5103104), wk =   0.0039062
        k(  464) = (   0.8750000  -0.3608439   0.6634035), wk =   0.0039062
        k(  465) = (   0.8750000  -0.2165064  -0.4592793), wk =   0.0039062
        k(  466) = (   0.8750000  -0.2165064  -0.3061862), wk =   0.0039062
        k(  467) = (   0.8750000  -0.2165064  -0.1530931), wk =   0.0039062
        k(  468) = (   0.8750000  -0.2165064   0.0000000), wk =   0.0039062
        k(  469) = (   0.8750000  -0.2165064   0.1530931), wk =   0.0039062
        k(  470) = (   0.8750000  -0.2165064   0.3061862), wk =   0.0039062
        k(  471) = (   0.8750000  -0.2165064   0.4592793), wk =   0.0039062
        k(  472) = (   0.8750000  -0.2165064   0.6123724), wk =   0.0039062
        k(  473) = (   0.8750000  -0.0721688  -0.5103104), wk =   0.0039062
        k(  474) = (   0.8750000  -0.0721688  -0.3572173), wk =   0.0039062
        k(  475) = (   0.8750000  -0.0721688  -0.2041241), wk =   0.0039062
        k(  476) = (   0.8750000  -0.0721688  -0.0510310), wk =   0.0039062
        k(  477) = (   0.8750000  -0.0721688   0.1020621), wk =   0.0039062
        k(  478) = (   0.8750000  -0.0721688   0.2551552), wk =   0.0039062
        k(  479) = (   0.8750000  -0.0721688   0.4082483), wk =   0.0039062
        k(  480) = (   0.8750000  -0.0721688   0.5613414), wk =   0.0039062
        k(  481) = (   0.8750000   0.0721688  -0.5613414), wk =   0.0039062
        k(  482) = (   0.8750000   0.0721688  -0.4082483), wk =   0.0039062
        k(  483) = (   0.8750000   0.0721688  -0.2551552), wk =   0.0039062
        k(  484) = (   0.8750000   0.0721688  -0.1020621), wk =   0.0039062
        k(  485) = (   0.8750000   0.0721688   0.0510310), wk =   0.0039062
        k(  486) = (   0.8750000   0.0721688   0.2041241), wk =   0.0039062
        k(  487) = (   0.8750000   0.0721688   0.3572173), wk =   0.0039062
        k(  488) = (   0.8750000   0.0721688   0.5103104), wk =   0.0039062
        k(  489) = (   0.8750000   0.2165064  -0.6123724), wk =   0.0039062
        k(  490) = (   0.8750000   0.2165064  -0.4592793), wk =   0.0039062
        k(  491) = (   0.8750000   0.2165064  -0.3061862), wk =   0.0039062
        k(  492) = (   0.8750000   0.2165064  -0.1530931), wk =   0.0039062
        k(  493) = (   0.8750000   0.2165064  -0.0000000), wk =   0.0039062
        k(  494) = (   0.8750000   0.2165064   0.1530931), wk =   0.0039062
        k(  495) = (   0.8750000   0.2165064   0.3061862), wk =   0.0039062
        k(  496) = (   0.8750000   0.2165064   0.4592793), wk =   0.0039062
        k(  497) = (   0.8750000   0.3608439  -0.6634035), wk =   0.0039062
        k(  498) = (   0.8750000   0.3608439  -0.5103104), wk =   0.0039062
        k(  499) = (   0.8750000   0.3608439  -0.3572173), wk =   0.0039062
        k(  500) = (   0.8750000   0.3608439  -0.2041241), wk =   0.0039062
        k(  501) = (   0.8750000   0.3608439  -0.0510310), wk =   0.0039062
        k(  502) = (   0.8750000   0.3608439   0.1020621), wk =   0.0039062
        k(  503) = (   0.8750000   0.3608439   0.2551552), wk =   0.0039062
        k(  504) = (   0.8750000   0.3608439   0.4082483), wk =   0.0039062
        k(  505) = (   0.8750000   0.5051815  -0.7144345), wk =   0.0039062
        k(  506) = (   0.8750000   0.5051815  -0.5613414), wk =   0.0039062
        k(  507) = (   0.8750000   0.5051815  -0.4082483), wk =   0.0039062
        k(  508) = (   0.8750000   0.5051815  -0.2551552), wk =   0.0039062
        k(  509) = (   0.8750000   0.5051815  -0.1020621), wk =   0.0039062
        k(  510) = (   0.8750000   0.5051815   0.0510310), wk =   0.0039062
        k(  511) = (   0.8750000   0.5051815   0.2041241), wk =   0.0039062
        k(  512) = (   0.8750000   0.5051815   0.3572173), wk =   0.0039062

                       cryst. coord.
        k(    1) = (   0.0000000   0.0000000   0.0000000), wk =   0.0039062
        k(    2) = (   0.0000000   0.0000000   0.1250000), wk =   0.0039062
        k(    3) = (   0.0000000   0.0000000   0.2500000), wk =   0.0039062
        k(    4) = (   0.0000000   0.0000000   0.3750000), wk =   0.0039062
        k(    5) = (   0.0000000   0.0000000   0.5000000), wk =   0.0039062
        k(    6) = (   0.0000000   0.0000000   0.6250000), wk =   0.0039062
        k(    7) = (   0.0000000   0.0000000   0.7500000), wk =   0.0039062
        k(    8) = (   0.0000000   0.0000000   0.8750000), wk =   0.0039062
        k(    9) = (   0.0000000   0.1250000   0.0000000), wk =   0.0039062
        k(   10) = (   0.0000000   0.1250000   0.1250000), wk =   0.0039062
        k(   11) = (   0.0000000   0.1250000   0.2500000), wk =   0.0039062
        k(   12) = (   0.0000000   0.1250000   0.3750000), wk =   0.0039062
        k(   13) = (   0.0000000   0.1250000   0.5000000), wk =   0.0039062
        k(   14) = (   0.0000000   0.1250000   0.6250000), wk =   0.0039062
        k(   15) = (   0.0000000   0.1250000   0.7500000), wk =   0.0039062
        k(   16) = (   0.0000000   0.1250000   0.8750000), wk =   0.0039062
        k(   17) = (   0.0000000   0.2500000   0.0000000), wk =   0.0039062
        k(   18) = (   0.0000000   0.2500000   0.1250000), wk =   0.0039062
        k(   19) = (   0.0000000   0.2500000   0.2500000), wk =   0.0039062
        k(   20) = (   0.0000000   0.2500000   0.3750000), wk =   0.0039062
        k(   21) = (   0.0000000   0.2500000   0.5000000), wk =   0.0039062
        k(   22) = (   0.0000000   0.2500000   0.6250000), wk =   0.0039062
        k(   23) = (   0.0000000   0.2500000   0.7500000), wk =   0.0039062
        k(   24) = (   0.0000000   0.2500000   0.8750000), wk =   0.0039062
        k(   25) = (   0.0000000   0.3750000   0.0000000), wk =   0.0039062
        k(   26) = (   0.0000000   0.3750000   0.1250000), wk =   0.0039062
        k(   27) = (   0.0000000   0.3750000   0.2500000), wk =   0.0039062
        k(   28) = (   0.0000000   0.3750000   0.3750000), wk =   0.0039062
        k(   29) = (   0.0000000   0.3750000   0.5000000), wk =   0.0039062
        k(   30) = (   0.0000000   0.3750000   0.6250000), wk =   0.0039062
        k(   31) = (   0.0000000   0.3750000   0.7500000), wk =   0.0039062
        k(   32) = (   0.0000000   0.3750000   0.8750000), wk =   0.0039062
        k(   33) = (   0.0000000   0.5000000   0.0000000), wk =   0.0039062
        k(   34) = (   0.0000000   0.5000000   0.1250000), wk =   0.0039062
        k(   35) = (   0.0000000   0.5000000   0.2500000), wk =   0.0039062
        k(   36) = (   0.0000000   0.5000000   0.3750000), wk =   0.0039062
        k(   37) = (   0.0000000   0.5000000   0.5000000), wk =   0.0039062
        k(   38) = (   0.0000000   0.5000000   0.6250000), wk =   0.0039062
        k(   39) = (   0.0000000   0.5000000   0.7500000), wk =   0.0039062
        k(   40) = (   0.0000000   0.5000000   0.8750000), wk =   0.0039062
        k(   41) = (   0.0000000   0.6250000  -0.0000000), wk =   0.0039062
        k(   42) = (   0.0000000   0.6250000   0.1250000), wk =   0.0039062
        k(   43) = (   0.0000000   0.6250000   0.2500000), wk =   0.0039062
        k(   44) = (   0.0000000   0.6250000   0.3750000), wk =   0.0039062
        k(   45) = (   0.0000000   0.6250000   0.5000000), wk =   0.0039062
        k(   46) = (   0.0000000   0.6250000   0.6250000), wk =   0.0039062
        k(   47) = (   0.0000000   0.6250000   0.7500000), wk =   0.0039062
        k(   48) = (   0.0000000   0.6250000   0.8750000), wk =   0.0039062
        k(   49) = (   0.0000000   0.7500000   0.0000000), wk =   0.0039062
        k(   50) = (   0.0000000   0.7500000   0.1250000), wk =   0.0039062
        k(   51) = (   0.0000000   0.7500000   0.2500000), wk =   0.0039062
        k(   52) = (   0.0000000   0.7500000   0.3750000), wk =   0.0039062
        k(   53) = (   0.0000000   0.7500000   0.5000000), wk =   0.0039062
        k(   54) = (   0.0000000   0.7500000   0.6250000), wk =   0.0039062
        k(   55) = (   0.0000000   0.7500000   0.7500000), wk =   0.0039062
        k(   56) = (   0.0000000   0.7500000   0.8750000), wk =   0.0039062
        k(   57) = (   0.0000000   0.8750000   0.0000000), wk =   0.0039062
        k(   58) = (   0.0000000   0.8750000   0.1250000), wk =   0.0039062
        k(   59) = (   0.0000000   0.8750000   0.2500000), wk =   0.0039062
        k(   60) = (   0.0000000   0.8750000   0.3750000), wk =   0.0039062
        k(   61) = (   0.0000000   0.8750000   0.5000000), wk =   0.0039062
        k(   62) = (   0.0000000   0.8750000   0.6250000), wk =   0.0039062
        k(   63) = (   0.0000000   0.8750000   0.7500000), wk =   0.0039062
        k(   64) = (   0.0000000   0.8750000   0.8750000), wk =   0.0039062
        k(   65) = (   0.1250000   0.0000000  -0.0000000), wk =   0.0039062
        k(   66) = (   0.1250000   0.0000000   0.1250000), wk =   0.0039062
        k(   67) = (   0.1250000   0.0000000   0.2500000), wk =   0.0039062
        k(   68) = (   0.1250000   0.0000000   0.3750000), wk =   0.0039062
        k(   69) = (   0.1250000   0.0000000   0.5000000), wk =   0.0039062
        k(   70) = (   0.1250000   0.0000000   0.6250000), wk =   0.0039062
        k(   71) = (   0.1250000   0.0000000   0.7500000), wk =   0.0039062
        k(   72) = (   0.1250000   0.0000000   0.8750000), wk =   0.0039062
        k(   73) = (   0.1250000   0.1250000  -0.0000000), wk =   0.0039062
        k(   74) = (   0.1250000   0.1250000   0.1250000), wk =   0.0039062
        k(   75) = (   0.1250000   0.1250000   0.2500000), wk =   0.0039062
        k(   76) = (   0.1250000   0.1250000   0.3750000), wk =   0.0039062
        k(   77) = (   0.1250000   0.1250000   0.5000000), wk =   0.0039062
        k(   78) = (   0.1250000   0.1250000   0.6250000), wk =   0.0039062
        k(   79) = (   0.1250000   0.1250000   0.7500000), wk =   0.0039062
        k(   80) = (   0.1250000   0.1250000   0.8750000), wk =   0.0039062
        k(   81) = (   0.1250000   0.2500000   0.0000000), wk =   0.0039062
        k(   82) = (   0.1250000   0.2500000   0.1250000), wk =   0.0039062
        k(   83) = (   0.1250000   0.2500000   0.2500000), wk =   0.0039062
        k(   84) = (   0.1250000   0.2500000   0.3750000), wk =   0.0039062
        k(   85) = (   0.1250000   0.2500000   0.5000000), wk =   0.0039062
        k(   86) = (   0.1250000   0.2500000   0.6250000), wk =   0.0039062
        k(   87) = (   0.1250000   0.2500000   0.7500000), wk =   0.0039062
        k(   88) = (   0.1250000   0.2500000   0.8750000), wk =   0.0039062
        k(   89) = (   0.1250000   0.3750000  -0.0000000), wk =   0.0039062
        k(   90) = (   0.1250000   0.3750000   0.1250000), wk =   0.0039062
        k(   91) = (   0.1250000   0.3750000   0.2500000), wk =   0.0039062
        k(   92) = (   0.1250000   0.3750000   0.3750000), wk =   0.0039062
        k(   93) = (   0.1250000   0.3750000   0.5000000), wk =   0.0039062
        k(   94) = (   0.1250000   0.3750000   0.6250000), wk =   0.0039062
        k(   95) = (   0.1250000   0.3750000   0.7500000), wk =   0.0039062
        k(   96) = (   0.1250000   0.3750000   0.8750000), wk =   0.0039062
        k(   97) = (   0.1250000   0.5000000   0.0000000), wk =   0.0039062
        k(   98) = (   0.1250000   0.5000000   0.1250000), wk =   0.0039062
        k(   99) = (   0.1250000   0.5000000   0.2500000), wk =   0.0039062
        k(  100) = (   0.1250000   0.5000000   0.3750000), wk =   0.0039062
        k(  101) = (   0.1250000   0.5000000   0.5000000), wk =   0.0039062
        k(  102) = (   0.1250000   0.5000000   0.6250000), wk =   0.0039062
        k(  103) = (   0.1250000   0.5000000   0.7500000), wk =   0.0039062
        k(  104) = (   0.1250000   0.5000000   0.8750000), wk =   0.0039062
        k(  105) = (   0.1250000   0.6250000  -0.0000000), wk =   0.0039062
        k(  106) = (   0.1250000   0.6250000   0.1250000), wk =   0.0039062
        k(  107) = (   0.1250000   0.6250000   0.2500000), wk =   0.0039062
        k(  108) = (   0.1250000   0.6250000   0.3750000), wk =   0.0039062
        k(  109) = (   0.1250000   0.6250000   0.5000000), wk =   0.0039062
        k(  110) = (   0.1250000   0.6250000   0.6250000), wk =   0.0039062
        k(  111) = (   0.1250000   0.6250000   0.7500000), wk =   0.0039062
        k(  112) = (   0.1250000   0.6250000   0.8750000), wk =   0.0039062
        k(  113) = (   0.1250000   0.7500000   0.0000000), wk =   0.0039062
        k(  114) = (   0.1250000   0.7500000   0.1250000), wk =   0.0039062
        k(  115) = (   0.1250000   0.7500000   0.2500000), wk =   0.0039062
        k(  116) = (   0.1250000   0.7500000   0.3750000), wk =   0.0039062
        k(  117) = (   0.1250000   0.7500000   0.5000000), wk =   0.0039062
        k(  118) = (   0.1250000   0.7500000   0.6250000), wk =   0.0039062
        k(  119) = (   0.1250000   0.7500000   0.7500000), wk =   0.0039062
        k(  120) = (   0.1250000   0.7500000   0.8750000), wk =   0.0039062
        k(  121) = (   0.1250000   0.8750000   0.0000000), wk =   0.0039062
        k(  122) = (   0.1250000   0.8750000   0.1250000), wk =   0.0039062
        k(  123) = (   0.1250000   0.8750000   0.2500000), wk =   0.0039062
        k(  124) = (   0.1250000   0.8750000   0.3750000), wk =   0.0039062
        k(  125) = (   0.1250000   0.8750000   0.5000000), wk =   0.0039062
        k(  126) = (   0.1250000   0.8750000   0.6250000), wk =   0.0039062
        k(  127) = (   0.1250000   0.8750000   0.7500000), wk =   0.0039062
        k(  128) = (   0.1250000   0.8750000   0.8750000), wk =   0.0039062
        k(  129) = (   0.2500000   0.0000000  -0.0000000), wk =   0.0039062
        k(  130) = (   0.2500000   0.0000000   0.1250000), wk =   0.0039062
        k(  131) = (   0.2500000   0.0000000   0.2500000), wk =   0.0039062
        k(  132) = (   0.2500000   0.0000000   0.3750000), wk =   0.0039062
        k(  133) = (   0.2500000   0.0000000   0.5000000), wk =   0.0039062
        k(  134) = (   0.2500000   0.0000000   0.6250000), wk =   0.0039062
        k(  135) = (   0.2500000   0.0000000   0.7500000), wk =   0.0039062
        k(  136) = (   0.2500000   0.0000000   0.8750000), wk =   0.0039062
        k(  137) = (   0.2500000   0.1250000   0.0000000), wk =   0.0039062
        k(  138) = (   0.2500000   0.1250000   0.1250000), wk =   0.0039062
        k(  139) = (   0.2500000   0.1250000   0.2500000), wk =   0.0039062
        k(  140) = (   0.2500000   0.1250000   0.3750000), wk =   0.0039062
        k(  141) = (   0.2500000   0.1250000   0.5000000), wk =   0.0039062
        k(  142) = (   0.2500000   0.1250000   0.6250000), wk =   0.0039062
        k(  143) = (   0.2500000   0.1250000   0.7500000), wk =   0.0039062
        k(  144) = (   0.2500000   0.1250000   0.8750000), wk =   0.0039062
        k(  145) = (   0.2500000   0.2500000  -0.0000000), wk =   0.0039062
        k(  146) = (   0.2500000   0.2500000   0.1250000), wk =   0.0039062
        k(  147) = (   0.2500000   0.2500000   0.2500000), wk =   0.0039062
        k(  148) = (   0.2500000   0.2500000   0.3750000), wk =   0.0039062
        k(  149) = (   0.2500000   0.2500000   0.5000000), wk =   0.0039062
        k(  150) = (   0.2500000   0.2500000   0.6250000), wk =   0.0039062
        k(  151) = (   0.2500000   0.2500000   0.7500000), wk =   0.0039062
        k(  152) = (   0.2500000   0.2500000   0.8750000), wk =   0.0039062
        k(  153) = (   0.2500000   0.3750000  -0.0000000), wk =   0.0039062
        k(  154) = (   0.2500000   0.3750000   0.1250000), wk =   0.0039062
        k(  155) = (   0.2500000   0.3750000   0.2500000), wk =   0.0039062
        k(  156) = (   0.2500000   0.3750000   0.3750000), wk =   0.0039062
        k(  157) = (   0.2500000   0.3750000   0.5000000), wk =   0.0039062
        k(  158) = (   0.2500000   0.3750000   0.6250000), wk =   0.0039062
        k(  159) = (   0.2500000   0.3750000   0.7500000), wk =   0.0039062
        k(  160) = (   0.2500000   0.3750000   0.8750000), wk =   0.0039062
        k(  161) = (   0.2500000   0.5000000   0.0000000), wk =   0.0039062
        k(  162) = (   0.2500000   0.5000000   0.1250000), wk =   0.0039062
        k(  163) = (   0.2500000   0.5000000   0.2500000), wk =   0.0039062
        k(  164) = (   0.2500000   0.5000000   0.3750000), wk =   0.0039062
        k(  165) = (   0.2500000   0.5000000   0.5000000), wk =   0.0039062
        k(  166) = (   0.2500000   0.5000000   0.6250000), wk =   0.0039062
        k(  167) = (   0.2500000   0.5000000   0.7500000), wk =   0.0039062
        k(  168) = (   0.2500000   0.5000000   0.8750000), wk =   0.0039062
        k(  169) = (   0.2500000   0.6250000   0.0000000), wk =   0.0039062
        k(  170) = (   0.2500000   0.6250000   0.1250000), wk =   0.0039062
        k(  171) = (   0.2500000   0.6250000   0.2500000), wk =   0.0039062
        k(  172) = (   0.2500000   0.6250000   0.3750000), wk =   0.0039062
        k(  173) = (   0.2500000   0.6250000   0.5000000), wk =   0.0039062
        k(  174) = (   0.2500000   0.6250000   0.6250000), wk =   0.0039062
        k(  175) = (   0.2500000   0.6250000   0.7500000), wk =   0.0039062
        k(  176) = (   0.2500000   0.6250000   0.8750000), wk =   0.0039062
        k(  177) = (   0.2500000   0.7500000  -0.0000000), wk =   0.0039062
        k(  178) = (   0.2500000   0.7500000   0.1250000), wk =   0.0039062
        k(  179) = (   0.2500000   0.7500000   0.2500000), wk =   0.0039062
        k(  180) = (   0.2500000   0.7500000   0.3750000), wk =   0.0039062
        k(  181) = (   0.2500000   0.7500000   0.5000000), wk =   0.0039062
        k(  182) = (   0.2500000   0.7500000   0.6250000), wk =   0.0039062
        k(  183) = (   0.2500000   0.7500000   0.7500000), wk =   0.0039062
        k(  184) = (   0.2500000   0.7500000   0.8750000), wk =   0.0039062
        k(  185) = (   0.2500000   0.8750000   0.0000000), wk =   0.0039062
        k(  186) = (   0.2500000   0.8750000   0.1250000), wk =   0.0039062
        k(  187) = (   0.2500000   0.8750000   0.2500000), wk =   0.0039062
        k(  188) = (   0.2500000   0.8750000   0.3750000), wk =   0.0039062
        k(  189) = (   0.2500000   0.8750000   0.5000000), wk =   0.0039062
        k(  190) = (   0.2500000   0.8750000   0.6250000), wk =   0.0039062
        k(  191) = (   0.2500000   0.8750000   0.7500000), wk =   0.0039062
        k(  192) = (   0.2500000   0.8750000   0.8750000), wk =   0.0039062
        k(  193) = (   0.3750000   0.0000000  -0.0000000), wk =   0.0039062
        k(  194) = (   0.3750000   0.0000000   0.1250000), wk =   0.0039062
        k(  195) = (   0.3750000   0.0000000   0.2500000), wk =   0.0039062
        k(  196) = (   0.3750000   0.0000000   0.3750000), wk =   0.0039062
        k(  197) = (   0.3750000   0.0000000   0.5000000), wk =   0.0039062
        k(  198) = (   0.3750000   0.0000000   0.6250000), wk =   0.0039062
        k(  199) = (   0.3750000   0.0000000   0.7500000), wk =   0.0039062
        k(  200) = (   0.3750000   0.0000000   0.8750000), wk =   0.0039062
        k(  201) = (   0.3750000   0.1250000   0.0000000), wk =   0.0039062
        k(  202) = (   0.3750000   0.1250000   0.1250000), wk =   0.0039062
        k(  203) = (   0.3750000   0.1250000   0.2500000), wk =   0.0039062
        k(  204) = (   0.3750000   0.1250000   0.3750000), wk =   0.0039062
        k(  205) = (   0.3750000   0.1250000   0.5000000), wk =   0.0039062
        k(  206) = (   0.3750000   0.1250000   0.6250000), wk =   0.0039062
        k(  207) = (   0.3750000   0.1250000   0.7500000), wk =   0.0039062
        k(  208) = (   0.3750000   0.1250000   0.8750000), wk =   0.0039062
        k(  209) = (   0.3750000   0.2500000   0.0000000), wk =   0.0039062
        k(  210) = (   0.3750000   0.2500000   0.1250000), wk =   0.0039062
        k(  211) = (   0.3750000   0.2500000   0.2500000), wk =   0.0039062
        k(  212) = (   0.3750000   0.2500000   0.3750000), wk =   0.0039062
        k(  213) = (   0.3750000   0.2500000   0.5000000), wk =   0.0039062
        k(  214) = (   0.3750000   0.2500000   0.6250000), wk =   0.0039062
        k(  215) = (   0.3750000   0.2500000   0.7500000), wk =   0.0039062
        k(  216) = (   0.3750000   0.2500000   0.8750000), wk =   0.0039062
        k(  217) = (   0.3750000   0.3750000   0.0000000), wk =   0.0039062
        k(  218) = (   0.3750000   0.3750000   0.1250000), wk =   0.0039062
        k(  219) = (   0.3750000   0.3750000   0.2500000), wk =   0.0039062
        k(  220) = (   0.3750000   0.3750000   0.3750000), wk =   0.0039062
        k(  221) = (   0.3750000   0.3750000   0.5000000), wk =   0.0039062
        k(  222) = (   0.3750000   0.3750000   0.6250000), wk =   0.0039062
        k(  223) = (   0.3750000   0.3750000   0.7500000), wk =   0.0039062
        k(  224) = (   0.3750000   0.3750000   0.8750000), wk =   0.0039062
        k(  225) = (   0.3750000   0.5000000  -0.0000000), wk =   0.0039062
        k(  226) = (   0.3750000   0.5000000   0.1250000), wk =   0.0039062
        k(  227) = (   0.3750000   0.5000000   0.2500000), wk =   0.0039062
        k(  228) = (   0.3750000   0.5000000   0.3750000), wk =   0.0039062
        k(  229) = (   0.3750000   0.5000000   0.5000000), wk =   0.0039062
        k(  230) = (   0.3750000   0.5000000   0.6250000), wk =   0.0039062
        k(  231) = (   0.3750000   0.5000000   0.7500000), wk =   0.0039062
        k(  232) = (   0.3750000   0.5000000   0.8750000), wk =   0.0039062
        k(  233) = (   0.3750000   0.6250000  -0.0000000), wk =   0.0039062
        k(  234) = (   0.3750000   0.6250000   0.1250000), wk =   0.0039062
        k(  235) = (   0.3750000   0.6250000   0.2500000), wk =   0.0039062
        k(  236) = (   0.3750000   0.6250000   0.3750000), wk =   0.0039062
        k(  237) = (   0.3750000   0.6250000   0.5000000), wk =   0.0039062
        k(  238) = (   0.3750000   0.6250000   0.6250000), wk =   0.0039062
        k(  239) = (   0.3750000   0.6250000   0.7500000), wk =   0.0039062
        k(  240) = (   0.3750000   0.6250000   0.8750000), wk =   0.0039062
        k(  241) = (   0.3750000   0.7500000  -0.0000000), wk =   0.0039062
        k(  242) = (   0.3750000   0.7500000   0.1250000), wk =   0.0039062
        k(  243) = (   0.3750000   0.7500000   0.2500000), wk =   0.0039062
        k(  244) = (   0.3750000   0.7500000   0.3750000), wk =   0.0039062
        k(  245) = (   0.3750000   0.7500000   0.5000000), wk =   0.0039062
        k(  246) = (   0.3750000   0.7500000   0.6250000), wk =   0.0039062
        k(  247) = (   0.3750000   0.7500000   0.7500000), wk =   0.0039062
        k(  248) = (   0.3750000   0.7500000   0.8750000), wk =   0.0039062
        k(  249) = (   0.3750000   0.8750000   0.0000000), wk =   0.0039062
        k(  250) = (   0.3750000   0.8750000   0.1250000), wk =   0.0039062
        k(  251) = (   0.3750000   0.8750000   0.2500000), wk =   0.0039062
        k(  252) = (   0.3750000   0.8750000   0.3750000), wk =   0.0039062
        k(  253) = (   0.3750000   0.8750000   0.5000000), wk =   0.0039062
        k(  254) = (   0.3750000   0.8750000   0.6250000), wk =   0.0039062
        k(  255) = (   0.3750000   0.8750000   0.7500000), wk =   0.0039062
        k(  256) = (   0.3750000   0.8750000   0.8750000), wk =   0.0039062
        k(  257) = (   0.5000000   0.0000000  -0.0000000), wk =   0.0039062
        k(  258) = (   0.5000000   0.0000000   0.1250000), wk =   0.0039062
        k(  259) = (   0.5000000   0.0000000   0.2500000), wk =   0.0039062
        k(  260) = (   0.5000000   0.0000000   0.3750000), wk =   0.0039062
        k(  261) = (   0.5000000   0.0000000   0.5000000), wk =   0.0039062
        k(  262) = (   0.5000000   0.0000000   0.6250000), wk =   0.0039062
        k(  263) = (   0.5000000   0.0000000   0.7500000), wk =   0.0039062
        k(  264) = (   0.5000000   0.0000000   0.8750000), wk =   0.0039062
        k(  265) = (   0.5000000   0.1250000  -0.0000000), wk =   0.0039062
        k(  266) = (   0.5000000   0.1250000   0.1250000), wk =   0.0039062
        k(  267) = (   0.5000000   0.1250000   0.2500000), wk =   0.0039062
        k(  268) = (   0.5000000   0.1250000   0.3750000), wk =   0.0039062
        k(  269) = (   0.5000000   0.1250000   0.5000000), wk =   0.0039062
        k(  270) = (   0.5000000   0.1250000   0.6250000), wk =   0.0039062
        k(  271) = (   0.5000000   0.1250000   0.7500000), wk =   0.0039062
        k(  272) = (   0.5000000   0.1250000   0.8750000), wk =   0.0039062
        k(  273) = (   0.5000000   0.2500000   0.0000000), wk =   0.0039062
        k(  274) = (   0.5000000   0.2500000   0.1250000), wk =   0.0039062
        k(  275) = (   0.5000000   0.2500000   0.2500000), wk =   0.0039062
        k(  276) = (   0.5000000   0.2500000   0.3750000), wk =   0.0039062
        k(  277) = (   0.5000000   0.2500000   0.5000000), wk =   0.0039062
        k(  278) = (   0.5000000   0.2500000   0.6250000), wk =   0.0039062
        k(  279) = (   0.5000000   0.2500000   0.7500000), wk =   0.0039062
        k(  280) = (   0.5000000   0.2500000   0.8750000), wk =   0.0039062
        k(  281) = (   0.5000000   0.3750000  -0.0000000), wk =   0.0039062
        k(  282) = (   0.5000000   0.3750000   0.1250000), wk =   0.0039062
        k(  283) = (   0.5000000   0.3750000   0.2500000), wk =   0.0039062
        k(  284) = (   0.5000000   0.3750000   0.3750000), wk =   0.0039062
        k(  285) = (   0.5000000   0.3750000   0.5000000), wk =   0.0039062
        k(  286) = (   0.5000000   0.3750000   0.6250000), wk =   0.0039062
        k(  287) = (   0.5000000   0.3750000   0.7500000), wk =   0.0039062
        k(  288) = (   0.5000000   0.3750000   0.8750000), wk =   0.0039062
        k(  289) = (   0.5000000   0.5000000  -0.0000000), wk =   0.0039062
        k(  290) = (   0.5000000   0.5000000   0.1250000), wk =   0.0039062
        k(  291) = (   0.5000000   0.5000000   0.2500000), wk =   0.0039062
        k(  292) = (   0.5000000   0.5000000   0.3750000), wk =   0.0039062
        k(  293) = (   0.5000000   0.5000000   0.5000000), wk =   0.0039062
        k(  294) = (   0.5000000   0.5000000   0.6250000), wk =   0.0039062
        k(  295) = (   0.5000000   0.5000000   0.7500000), wk =   0.0039062
        k(  296) = (   0.5000000   0.5000000   0.8750000), wk =   0.0039062
        k(  297) = (   0.5000000   0.6250000  -0.0000000), wk =   0.0039062
        k(  298) = (   0.5000000   0.6250000   0.1250000), wk =   0.0039062
        k(  299) = (   0.5000000   0.6250000   0.2500000), wk =   0.0039062
        k(  300) = (   0.5000000   0.6250000   0.3750000), wk =   0.0039062
        k(  301) = (   0.5000000   0.6250000   0.5000000), wk =   0.0039062
        k(  302) = (   0.5000000   0.6250000   0.6250000), wk =   0.0039062
        k(  303) = (   0.5000000   0.6250000   0.7500000), wk =   0.0039062
        k(  304) = (   0.5000000   0.6250000   0.8750000), wk =   0.0039062
        k(  305) = (   0.5000000   0.7500000  -0.0000000), wk =   0.0039062
        k(  306) = (   0.5000000   0.7500000   0.1250000), wk =   0.0039062
        k(  307) = (   0.5000000   0.7500000   0.2500000), wk =   0.0039062
        k(  308) = (   0.5000000   0.7500000   0.3750000), wk =   0.0039062
        k(  309) = (   0.5000000   0.7500000   0.5000000), wk =   0.0039062
        k(  310) = (   0.5000000   0.7500000   0.6250000), wk =   0.0039062
        k(  311) = (   0.5000000   0.7500000   0.7500000), wk =   0.0039062
        k(  312) = (   0.5000000   0.7500000   0.8750000), wk =   0.0039062
        k(  313) = (   0.5000000   0.8750000   0.0000000), wk =   0.0039062
        k(  314) = (   0.5000000   0.8750000   0.1250000), wk =   0.0039062
        k(  315) = (   0.5000000   0.8750000   0.2500000), wk =   0.0039062
        k(  316) = (   0.5000000   0.8750000   0.3750000), wk =   0.0039062
        k(  317) = (   0.5000000   0.8750000   0.5000000), wk =   0.0039062
        k(  318) = (   0.5000000   0.8750000   0.6250000), wk =   0.0039062
        k(  319) = (   0.5000000   0.8750000   0.7500000), wk =   0.0039062
        k(  320) = (   0.5000000   0.8750000   0.8750000), wk =   0.0039062
        k(  321) = (   0.6250000   0.0000000   0.0000000), wk =   0.0039062
        k(  322) = (   0.6250000   0.0000000   0.1250000), wk =   0.0039062
        k(  323) = (   0.6250000   0.0000000   0.2500000), wk =   0.0039062
        k(  324) = (   0.6250000   0.0000000   0.3750000), wk =   0.0039062
        k(  325) = (   0.6250000   0.0000000   0.5000000), wk =   0.0039062
        k(  326) = (   0.6250000   0.0000000   0.6250000), wk =   0.0039062
        k(  327) = (   0.6250000   0.0000000   0.7500000), wk =   0.0039062
        k(  328) = (   0.6250000   0.0000000   0.8750000), wk =   0.0039062
        k(  329) = (   0.6250000   0.1250000  -0.0000000), wk =   0.0039062
        k(  330) = (   0.6250000   0.1250000   0.1250000), wk =   0.0039062
        k(  331) = (   0.6250000   0.1250000   0.2500000), wk =   0.0039062
        k(  332) = (   0.6250000   0.1250000   0.3750000), wk =   0.0039062
        k(  333) = (   0.6250000   0.1250000   0.5000000), wk =   0.0039062
        k(  334) = (   0.6250000   0.1250000   0.6250000), wk =   0.0039062
        k(  335) = (   0.6250000   0.1250000   0.7500000), wk =   0.0039062
        k(  336) = (   0.6250000   0.1250000   0.8750000), wk =   0.0039062
        k(  337) = (   0.6250000   0.2500000   0.0000000), wk =   0.0039062
        k(  338) = (   0.6250000   0.2500000   0.1250000), wk =   0.0039062
        k(  339) = (   0.6250000   0.2500000   0.2500000), wk =   0.0039062
        k(  340) = (   0.6250000   0.2500000   0.3750000), wk =   0.0039062
        k(  341) = (   0.6250000   0.2500000   0.5000000), wk =   0.0039062
        k(  342) = (   0.6250000   0.2500000   0.6250000), wk =   0.0039062
        k(  343) = (   0.6250000   0.2500000   0.7500000), wk =   0.0039062
        k(  344) = (   0.6250000   0.2500000   0.8750000), wk =   0.0039062
        k(  345) = (   0.6250000   0.3750000  -0.0000000), wk =   0.0039062
        k(  346) = (   0.6250000   0.3750000   0.1250000), wk =   0.0039062
        k(  347) = (   0.6250000   0.3750000   0.2500000), wk =   0.0039062
        k(  348) = (   0.6250000   0.3750000   0.3750000), wk =   0.0039062
        k(  349) = (   0.6250000   0.3750000   0.5000000), wk =   0.0039062
        k(  350) = (   0.6250000   0.3750000   0.6250000), wk =   0.0039062
        k(  351) = (   0.6250000   0.3750000   0.7500000), wk =   0.0039062
        k(  352) = (   0.6250000   0.3750000   0.8750000), wk =   0.0039062
        k(  353) = (   0.6250000   0.5000000  -0.0000000), wk =   0.0039062
        k(  354) = (   0.6250000   0.5000000   0.1250000), wk =   0.0039062
        k(  355) = (   0.6250000   0.5000000   0.2500000), wk =   0.0039062
        k(  356) = (   0.6250000   0.5000000   0.3750000), wk =   0.0039062
        k(  357) = (   0.6250000   0.5000000   0.5000000), wk =   0.0039062
        k(  358) = (   0.6250000   0.5000000   0.6250000), wk =   0.0039062
        k(  359) = (   0.6250000   0.5000000   0.7500000), wk =   0.0039062
        k(  360) = (   0.6250000   0.5000000   0.8750000), wk =   0.0039062
        k(  361) = (   0.6250000   0.6250000  -0.0000000), wk =   0.0039062
        k(  362) = (   0.6250000   0.6250000   0.1250000), wk =   0.0039062
        k(  363) = (   0.6250000   0.6250000   0.2500000), wk =   0.0039062
        k(  364) = (   0.6250000   0.6250000   0.3750000), wk =   0.0039062
        k(  365) = (   0.6250000   0.6250000   0.5000000), wk =   0.0039062
        k(  366) = (   0.6250000   0.6250000   0.6250000), wk =   0.0039062
        k(  367) = (   0.6250000   0.6250000   0.7500000), wk =   0.0039062
        k(  368) = (   0.6250000   0.6250000   0.8750000), wk =   0.0039062
        k(  369) = (   0.6250000   0.7500000  -0.0000000), wk =   0.0039062
        k(  370) = (   0.6250000   0.7500000   0.1250000), wk =   0.0039062
        k(  371) = (   0.6250000   0.7500000   0.2500000), wk =   0.0039062
        k(  372) = (   0.6250000   0.7500000   0.3750000), wk =   0.0039062
        k(  373) = (   0.6250000   0.7500000   0.5000000), wk =   0.0039062
        k(  374) = (   0.6250000   0.7500000   0.6250000), wk =   0.0039062
        k(  375) = (   0.6250000   0.7500000   0.7500000), wk =   0.0039062
        k(  376) = (   0.6250000   0.7500000   0.8750000), wk =   0.0039062
        k(  377) = (   0.6250000   0.8750000   0.0000000), wk =   0.0039062
        k(  378) = (   0.6250000   0.8750000   0.1250000), wk =   0.0039062
        k(  379) = (   0.6250000   0.8750000   0.2500000), wk =   0.0039062
        k(  380) = (   0.6250000   0.8750000   0.3750000), wk =   0.0039062
        k(  381) = (   0.6250000   0.8750000   0.5000000), wk =   0.0039062
        k(  382) = (   0.6250000   0.8750000   0.6250000), wk =   0.0039062
        k(  383) = (   0.6250000   0.8750000   0.7500000), wk =   0.0039062
        k(  384) = (   0.6250000   0.8750000   0.8750000), wk =   0.0039062
        k(  385) = (   0.7500000   0.0000000  -0.0000000), wk =   0.0039062
        k(  386) = (   0.7500000   0.0000000   0.1250000), wk =   0.0039062
        k(  387) = (   0.7500000   0.0000000   0.2500000), wk =   0.0039062
        k(  388) = (   0.7500000   0.0000000   0.3750000), wk =   0.0039062
        k(  389) = (   0.7500000   0.0000000   0.5000000), wk =   0.0039062
        k(  390) = (   0.7500000   0.0000000   0.6250000), wk =   0.0039062
        k(  391) = (   0.7500000   0.0000000   0.7500000), wk =   0.0039062
        k(  392) = (   0.7500000   0.0000000   0.8750000), wk =   0.0039062
        k(  393) = (   0.7500000   0.1250000   0.0000000), wk =   0.0039062
        k(  394) = (   0.7500000   0.1250000   0.1250000), wk =   0.0039062
        k(  395) = (   0.7500000   0.1250000   0.2500000), wk =   0.0039062
        k(  396) = (   0.7500000   0.1250000   0.3750000), wk =   0.0039062
        k(  397) = (   0.7500000   0.1250000   0.5000000), wk =   0.0039062
        k(  398) = (   0.7500000   0.1250000   0.6250000), wk =   0.0039062
        k(  399) = (   0.7500000   0.1250000   0.7500000), wk =   0.0039062
        k(  400) = (   0.7500000   0.1250000   0.8750000), wk =   0.0039062
        k(  401) = (   0.7500000   0.2500000   0.0000000), wk =   0.0039062
        k(  402) = (   0.7500000   0.2500000   0.1250000), wk =   0.0039062
        k(  403) = (   0.7500000   0.2500000   0.2500000), wk =   0.0039062
        k(  404) = (   0.7500000   0.2500000   0.3750000), wk =   0.0039062
        k(  405) = (   0.7500000   0.2500000   0.5000000), wk =   0.0039062
        k(  406) = (   0.7500000   0.2500000   0.6250000), wk =   0.0039062
        k(  407) = (   0.7500000   0.2500000   0.7500000), wk =   0.0039062
        k(  408) = (   0.7500000   0.2500000   0.8750000), wk =   0.0039062
        k(  409) = (   0.7500000   0.3750000   0.0000000), wk =   0.0039062
        k(  410) = (   0.7500000   0.3750000   0.1250000), wk =   0.0039062
        k(  411) = (   0.7500000   0.3750000   0.2500000), wk =   0.0039062
        k(  412) = (   0.7500000   0.3750000   0.3750000), wk =   0.0039062
        k(  413) = (   0.7500000   0.3750000   0.5000000), wk =   0.0039062
        k(  414) = (   0.7500000   0.3750000   0.6250000), wk =   0.0039062
        k(  415) = (   0.7500000   0.3750000   0.7500000), wk =   0.0039062
        k(  416) = (   0.7500000   0.3750000   0.8750000), wk =   0.0039062
        k(  417) = (   0.7500000   0.5000000   0.0000000), wk =   0.0039062
        k(  418) = (   0.7500000   0.5000000   0.1250000), wk =   0.0039062
        k(  419) = (   0.7500000   0.5000000   0.2500000), wk =   0.0039062
        k(  420) = (   0.7500000   0.5000000   0.3750000), wk =   0.0039062
        k(  421) = (   0.7500000   0.5000000   0.5000000), wk =   0.0039062
        k(  422) = (   0.7500000   0.5000000   0.6250000), wk =   0.0039062
        k(  423) = (   0.7500000   0.5000000   0.7500000), wk =   0.0039062
        k(  424) = (   0.7500000   0.5000000   0.8750000), wk =   0.0039062
        k(  425) = (   0.7500000   0.6250000  -0.0000000), wk =   0.0039062
        k(  426) = (   0.7500000   0.6250000   0.1250000), wk =   0.0039062
        k(  427) = (   0.7500000   0.6250000   0.2500000), wk =   0.0039062
        k(  428) = (   0.7500000   0.6250000   0.3750000), wk =   0.0039062
        k(  429) = (   0.7500000   0.6250000   0.5000000), wk =   0.0039062
        k(  430) = (   0.7500000   0.6250000   0.6250000), wk =   0.0039062
        k(  431) = (   0.7500000   0.6250000   0.7500000), wk =   0.0039062
        k(  432) = (   0.7500000   0.6250000   0.8750000), wk =   0.0039062
        k(  433) = (   0.7500000   0.7500000   0.0000000), wk =   0.0039062
        k(  434) = (   0.7500000   0.7500000   0.1250000), wk =   0.0039062
        k(  435) = (   0.7500000   0.7500000   0.2500000), wk =   0.0039062
        k(  436) = (   0.7500000   0.7500000   0.3750000), wk =   0.0039062
        k(  437) = (   0.7500000   0.7500000   0.5000000), wk =   0.0039062
        k(  438) = (   0.7500000   0.7500000   0.6250000), wk =   0.0039062
        k(  439) = (   0.7500000   0.7500000   0.7500000), wk =   0.0039062
        k(  440) = (   0.7500000   0.7500000   0.8750000), wk =   0.0039062
        k(  441) = (   0.7500000   0.8750000  -0.0000000), wk =   0.0039062
        k(  442) = (   0.7500000   0.8750000   0.1250000), wk =   0.0039062
        k(  443) = (   0.7500000   0.8750000   0.2500000), wk =   0.0039062
        k(  444) = (   0.7500000   0.8750000   0.3750000), wk =   0.0039062
        k(  445) = (   0.7500000   0.8750000   0.5000000), wk =   0.0039062
        k(  446) = (   0.7500000   0.8750000   0.6250000), wk =   0.0039062
        k(  447) = (   0.7500000   0.8750000   0.7500000), wk =   0.0039062
        k(  448) = (   0.7500000   0.8750000   0.8750000), wk =   0.0039062
        k(  449) = (   0.8750000  -0.0000000  -0.0000000), wk =   0.0039062
        k(  450) = (   0.8750000  -0.0000000   0.1250000), wk =   0.0039062
        k(  451) = (   0.8750000  -0.0000000   0.2500000), wk =   0.0039062
        k(  452) = (   0.8750000  -0.0000000   0.3750000), wk =   0.0039062
        k(  453) = (   0.8750000  -0.0000000   0.5000000), wk =   0.0039062
        k(  454) = (   0.8750000  -0.0000000   0.6250000), wk =   0.0039062
        k(  455) = (   0.8750000  -0.0000000   0.7500000), wk =   0.0039062
        k(  456) = (   0.8750000  -0.0000000   0.8750000), wk =   0.0039062
        k(  457) = (   0.8750000   0.1250000  -0.0000000), wk =   0.0039062
        k(  458) = (   0.8750000   0.1250000   0.1250000), wk =   0.0039062
        k(  459) = (   0.8750000   0.1250000   0.2500000), wk =   0.0039062
        k(  460) = (   0.8750000   0.1250000   0.3750000), wk =   0.0039062
        k(  461) = (   0.8750000   0.1250000   0.5000000), wk =   0.0039062
        k(  462) = (   0.8750000   0.1250000   0.6250000), wk =   0.0039062
        k(  463) = (   0.8750000   0.1250000   0.7500000), wk =   0.0039062
        k(  464) = (   0.8750000   0.1250000   0.8750000), wk =   0.0039062
        k(  465) = (   0.8750000   0.2500000  -0.0000000), wk =   0.0039062
        k(  466) = (   0.8750000   0.2500000   0.1250000), wk =   0.0039062
        k(  467) = (   0.8750000   0.2500000   0.2500000), wk =   0.0039062
        k(  468) = (   0.8750000   0.2500000   0.3750000), wk =   0.0039062
        k(  469) = (   0.8750000   0.2500000   0.5000000), wk =   0.0039062
        k(  470) = (   0.8750000   0.2500000   0.6250000), wk =   0.0039062
        k(  471) = (   0.8750000   0.2500000   0.7500000), wk =   0.0039062
        k(  472) = (   0.8750000   0.2500000   0.8750000), wk =   0.0039062
        k(  473) = (   0.8750000   0.3750000  -0.0000000), wk =   0.0039062
        k(  474) = (   0.8750000   0.3750000   0.1250000), wk =   0.0039062
        k(  475) = (   0.8750000   0.3750000   0.2500000), wk =   0.0039062
        k(  476) = (   0.8750000   0.3750000   0.3750000), wk =   0.0039062
        k(  477) = (   0.8750000   0.3750000   0.5000000), wk =   0.0039062
        k(  478) = (   0.8750000   0.3750000   0.6250000), wk =   0.0039062
        k(  479) = (   0.8750000   0.3750000   0.7500000), wk =   0.0039062
        k(  480) = (   0.8750000   0.3750000   0.8750000), wk =   0.0039062
        k(  481) = (   0.8750000   0.5000000  -0.0000000), wk =   0.0039062
[...]

          k = 0.8750-0.2165 0.1531 (   755 PWs)   bands (ev):

    -2.3984  -0.8572   2.0433   3.1218   8.4113  10.2901  11.2285  13.3692
    14.3319  16.9812  18.0922  20.2108  21.1997  21.8013  23.3812  24.1976

     occupation numbers 
     1.0000   1.0000   1.0000   1.0000   0.0000   0.0000   0.0000   0.0000
     0.0000   0.0000   0.0000   0.0000   0.0000   0.0000   0.0000   0.0000

          k = 0.8750-0.2165 0.3062 (   755 PWs)   bands (ev):

    -2.7424  -0.4992   1.8806   3.4896   8.8810  10.5344  11.1832  12.9834
    13.7870  15.1671  19.9518  20.1650  20.4975  22.0948  22.3521  24.1381

     occupation numbers 
     1.0000   1.0000   1.0000   1.0000   0.0000   0.0000   0.0000   0.0000
     0.0000   0.0000   0.0000   0.0000   0.0000   0.0000   0.0000   0.0000

          k = 0.8750-0.2165 0.4593 (   768 PWs)   bands (ev):

    -3.6232   0.2299   2.7582   4.1296   8.8805   9.5461  10.9945  11.8992
    14.9514  15.6464  17.9256  18.7674  20.0935  21.0107  23.1078  24.0020

     occupation numbers 
     1.0000   1.0000   1.0000   1.0000   0.0000   0.0000   0.0000   0.0000
     0.0000   0.0000   0.0000   0.0000   0.0000   0.0000   0.0000   0.0000

          k = 0.8750-0.2165 0.6124 (   775 PWs)   bands (ev):

    -4.2714   0.7891   4.2106   4.4648   8.2443   9.6068  10.4556  11.4584
    15.2898  15.3004  15.8151  19.2851  19.3054  21.0544  22.5565  23.4440

     occupation numbers 
     1.0000   1.0000   1.0000   1.0000   0.0000   0.0000   0.0000   0.0000
     0.0000   0.0000   0.0000   0.0000   0.0000   0.0000   0.0000   0.0000

          k = 0.8750-0.0722-0.5103 (   768 PWs)   bands (ev):

    -3.6689  -0.2819   3.5964   4.7780   8.3286   9.6251   9.8744  13.8475
    14.0790  15.1585  17.0971  18.3032  20.1426  20.5010  22.7050  24.4669

     occupation numbers 
     1.0000   1.0000   1.0000   1.0000   0.0000   0.0000   0.0000   0.0000
     0.0000   0.0000   0.0000   0.0000   0.0000   0.0000   0.0000   0.0000

          k = 0.8750-0.0722-0.3572 (   768 PWs)   bands (ev):

    -3.6232   0.2299   2.7582   4.1297   8.8804   9.5462  10.9945  11.8991
    14.9514  15.6464  17.9256  18.7673  20.0935  21.0108  23.1078  24.0021

     occupation numbers 
     1.0000   1.0000   1.0000   1.0000   0.0000   0.0000   0.0000   0.0000
     0.0000   0.0000   0.0000   0.0000   0.0000   0.0000   0.0000   0.0000

          k = 0.8750-0.0722-0.2041 (   763 PWs)   bands (ev):

    -3.2532   0.0924   2.7252   3.3183   7.9718   8.6744  11.7036  13.9092
    16.0755  16.1312  18.6987  19.2090  20.0942  20.5487  22.5084  22.9056

     occupation numbers 
     1.0000   1.0000   1.0000   1.0000   0.0000   0.0000   0.0000   0.0000
     0.0000   0.0000   0.0000   0.0000   0.0000   0.0000   0.0000   0.0000

          k = 0.8750-0.0722-0.0510 (   762 PWs)   bands (ev):

    -2.5668  -0.7596   2.6543   3.3870   6.9445   8.0007  14.1912  14.2504
    16.6391  16.7432  18.2369  18.6567  20.7647  20.8218  21.8196  24.5422

     occupation numbers 
     1.0000   1.0000   1.0000   1.0000   0.0000   0.0000   0.0000   0.0000
     0.0000   0.0000   0.0000   0.0000   0.0000   0.0000   0.0000   0.0000

          k = 0.8750-0.0722 0.1021 (   760 PWs)   bands (ev):

    -1.6540  -1.6539   2.6734   2.6734   8.0019   8.0020  13.7701  13.7702
    16.4772  16.4772  18.7405  18.7405  21.3942  21.3943  23.2479  23.2480

     occupation numbers 
     1.0000   1.0000   1.0000   1.0000   0.0000   0.0000   0.0000   0.0000
     0.0000   0.0000   0.0000   0.0000   0.0000   0.0000   0.0000   0.0000

          k = 0.8750-0.0722 0.2552 (   755 PWs)   bands (ev):

    -2.3984  -0.8573   2.0434   3.1218   8.4112  10.2901  11.2285  13.3692
    14.3319  16.9812  18.0922  20.2108  21.1997  21.8012  23.3812  24.1976

     occupation numbers 
     1.0000   1.0000   1.0000   1.0000   0.0000   0.0000   0.0000   0.0000
     0.0000   0.0000   0.0000   0.0000   0.0000   0.0000   0.0000   0.0000

          k = 0.8750-0.0722 0.4082 (   764 PWs)   bands (ev):

    -2.9878  -0.6917   2.6273   3.9056   9.0398   9.1629  11.8649  13.0915
    13.3221  16.5301  17.5748  18.2964  21.2922  21.4211  23.9245  24.2632

     occupation numbers 
     1.0000   1.0000   1.0000   1.0000   0.0000   0.0000   0.0000   0.0000
     0.0000   0.0000   0.0000   0.0000   0.0000   0.0000   0.0000   0.0000

          k = 0.8750-0.0722 0.5613 (   763 PWs)   bands (ev):

    -3.4311  -0.6438   3.7724   4.4873   8.1792   9.5048  10.1056  13.3238
    14.9662  16.4393  17.4270  17.5566  18.3408  20.8456  24.1137  25.4641

     occupation numbers 
     1.0000   1.0000   1.0000   1.0000   0.0000   0.0000   0.0000   0.0000
     0.0000   0.0000   0.0000   0.0000   0.0000   0.0000   0.0000   0.0000

          k = 0.8750 0.0722-0.5613 (   763 PWs)   bands (ev):

    -3.4311  -0.6438   3.7724   4.4873   8.1792   9.5048  10.1056  13.3238
    14.9662  16.4393  17.4270  17.5566  18.3408  20.8456  24.1137  25.4641

     occupation numbers 
     1.0000   1.0000   1.0000   1.0000   0.0000   0.0000   0.0000   0.0000
     0.0000   0.0000   0.0000   0.0000   0.0000   0.0000   0.0000   0.0000

          k = 0.8750 0.0722-0.4082 (   764 PWs)   bands (ev):

    -2.9878  -0.6917   2.6273   3.9056   9.0398   9.1629  11.8649  13.0915
    13.3221  16.5301  17.5748  18.2964  21.2922  21.4211  23.9245  24.2632

     occupation numbers 
     1.0000   1.0000   1.0000   1.0000   0.0000   0.0000   0.0000   0.0000
     0.0000   0.0000   0.0000   0.0000   0.0000   0.0000   0.0000   0.0000

          k = 0.8750 0.0722-0.2552 (   755 PWs)   bands (ev):

    -2.3984  -0.8573   2.0434   3.1218   8.4112  10.2901  11.2285  13.3692
    14.3319  16.9812  18.0922  20.2108  21.1997  21.8012  23.3812  24.1976

     occupation numbers 
     1.0000   1.0000   1.0000   1.0000   0.0000   0.0000   0.0000   0.0000
     0.0000   0.0000   0.0000   0.0000   0.0000   0.0000   0.0000   0.0000

          k = 0.8750 0.0722-0.1021 (   760 PWs)   bands (ev):

    -1.6540  -1.6539   2.6734   2.6734   8.0019   8.0020  13.7701  13.7702
    16.4772  16.4772  18.7405  18.7405  21.3942  21.3943  23.2479  23.2480

     occupation numbers 
     1.0000   1.0000   1.0000   1.0000   0.0000   0.0000   0.0000   0.0000
     0.0000   0.0000   0.0000   0.0000   0.0000   0.0000   0.0000   0.0000

          k = 0.8750 0.0722 0.0510 (   762 PWs)   bands (ev):

    -2.5668  -0.7596   2.6543   3.3870   6.9445   8.0007  14.1912  14.2504
    16.6391  16.7432  18.2369  18.6567  20.7647  20.8218  21.8196  24.5422

     occupation numbers 
     1.0000   1.0000   1.0000   1.0000   0.0000   0.0000   0.0000   0.0000
     0.0000   0.0000   0.0000   0.0000   0.0000   0.0000   0.0000   0.0000

          k = 0.8750 0.0722 0.2041 (   763 PWs)   bands (ev):

    -3.2532   0.0924   2.7252   3.3183   7.9718   8.6744  11.7036  13.9092
    16.0755  16.1312  18.6987  19.2090  20.0942  20.5487  22.5084  22.9056

     occupation numbers 
     1.0000   1.0000   1.0000   1.0000   0.0000   0.0000   0.0000   0.0000
     0.0000   0.0000   0.0000   0.0000   0.0000   0.0000   0.0000   0.0000

          k = 0.8750 0.0722 0.3572 (   768 PWs)   bands (ev):

    -3.6232   0.2299   2.7582   4.1297   8.8804   9.5462  10.9945  11.8991
    14.9514  15.6464  17.9256  18.7673  20.0935  21.0108  23.1078  24.0021

     occupation numbers 
     1.0000   1.0000   1.0000   1.0000   0.0000   0.0000   0.0000   0.0000
     0.0000   0.0000   0.0000   0.0000   0.0000   0.0000   0.0000   0.0000

          k = 0.8750 0.0722 0.5103 (   768 PWs)   bands (ev):

    -3.6689  -0.2819   3.5964   4.7780   8.3286   9.6251   9.8744  13.8475
    14.0790  15.1585  17.0971  18.3032  20.1426  20.5010  22.7050  24.4669

     occupation numbers 
     1.0000   1.0000   1.0000   1.0000   0.0000   0.0000   0.0000   0.0000
     0.0000   0.0000   0.0000   0.0000   0.0000   0.0000   0.0000   0.0000

          k = 0.8750 0.2165-0.6124 (   775 PWs)   bands (ev):

    -4.2714   0.7891   4.2106   4.4648   8.2443   9.6068  10.4556  11.4584
    15.2898  15.3004  15.8151  19.2851  19.3054  21.0544  22.5565  23.4440

     occupation numbers 
     1.0000   1.0000   1.0000   1.0000   0.0000   0.0000   0.0000   0.0000
     0.0000   0.0000   0.0000   0.0000   0.0000   0.0000   0.0000   0.0000

          k = 0.8750 0.2165-0.4593 (   768 PWs)   bands (ev):

    -3.6232   0.2299   2.7582   4.1296   8.8805   9.5461  10.9945  11.8992
    14.9514  15.6464  17.9256  18.7674  20.0935  21.0107  23.1078  24.0020

     occupation numbers 
     1.0000   1.0000   1.0000   1.0000   0.0000   0.0000   0.0000   0.0000
     0.0000   0.0000   0.0000   0.0000   0.0000   0.0000   0.0000   0.0000

          k = 0.8750 0.2165-0.3062 (   755 PWs)   bands (ev):

    -2.7424  -0.4992   1.8806   3.4896   8.8810  10.5344  11.1832  12.9834
    13.7870  15.1671  19.9518  20.1650  20.4975  22.0948  22.3521  24.1381

     occupation numbers 
     1.0000   1.0000   1.0000   1.0000   0.0000   0.0000   0.0000   0.0000
     0.0000   0.0000   0.0000   0.0000   0.0000   0.0000   0.0000   0.0000

          k = 0.8750 0.2165-0.1531 (   755 PWs)   bands (ev):

    -2.3984  -0.8572   2.0433   3.1218   8.4113  10.2901  11.2285  13.3692
    14.3319  16.9812  18.0922  20.2108  21.1997  21.8013  23.3812  24.1976

     occupation numbers 
     1.0000   1.0000   1.0000   1.0000   0.0000   0.0000   0.0000   0.0000
     0.0000   0.0000   0.0000   0.0000   0.0000   0.0000   0.0000   0.0000

          k = 0.8750 0.2165-0.0000 (   763 PWs)   bands (ev):

    -3.2532   0.0925   2.7251   3.3182   7.9718   8.6744  11.7036  13.9093
    16.0755  16.1313  18.6988  19.2090  20.0942  20.5487  22.5084  22.9056

     occupation numbers 
     1.0000   1.0000   1.0000   1.0000   0.0000   0.0000   0.0000   0.0000
     0.0000   0.0000   0.0000   0.0000   0.0000   0.0000   0.0000   0.0000

          k = 0.8750 0.2165 0.1531 (   766 PWs)   bands (ev):

    -4.0391   1.1050   3.4005   3.8545   7.3849   8.9177  11.9292  12.2254
    15.9441  15.9899  17.5685  19.0995  19.6585  20.6929  21.7787  22.9699

     occupation numbers 
     1.0000   1.0000   1.0000   1.0000   0.0000   0.0000   0.0000   0.0000
     0.0000   0.0000   0.0000   0.0000   0.0000   0.0000   0.0000   0.0000

          k = 0.8750 0.2165 0.3062 (   765 PWs)   bands (ev):

    -4.4935   1.7520   3.3625   4.6193   8.4586   9.8401  10.2215  11.4614
    13.7317  16.1262  16.9859  18.0546  19.7581  20.9649  21.7107  24.0317

     occupation numbers 
     1.0000   1.0000   1.0000   1.0000   0.0000   0.0000   0.0000   0.0000
     0.0000   0.0000   0.0000   0.0000   0.0000   0.0000   0.0000   0.0000

          k = 0.8750 0.2165 0.4593 (   773 PWs)   bands (ev):

    -4.5717   1.4363   3.7502   5.2616   8.6711   9.6707   9.8552  12.2308
    12.4941  15.7679  15.9785  18.3244  19.8684  21.3183  22.2259  23.8087

     occupation numbers 
     1.0000   1.0000   1.0000   1.0000   0.0000   0.0000   0.0000   0.0000
     0.0000   0.0000   0.0000   0.0000   0.0000   0.0000   0.0000   0.0000

          k = 0.8750 0.3608-0.6634 (   768 PWs)   bands (ev):

    -5.0706   2.8143   4.7304   4.7956   8.1593   9.6392  10.4436  10.7561
    13.3813  14.1864  15.9601  17.5193  19.0511  20.3023  23.4295  23.8844

     occupation numbers 
     1.0000   1.0000   1.0000   1.0000   0.0000   0.0000   0.0000   0.0000
     0.0000   0.0000   0.0000   0.0000   0.0000   0.0000   0.0000   0.0000

          k = 0.8750 0.3608-0.5103 (   765 PWs)   bands (ev):

    -4.4935   1.7521   3.3624   4.6193   8.4587   9.8400  10.2215  11.4615
    13.7317  16.1263  16.9859  18.0546  19.7581  20.9649  21.7107  24.0317

     occupation numbers 
     1.0000   1.0000   1.0000   1.0000   0.0000   0.0000   0.0000   0.0000
     0.0000   0.0000   0.0000   0.0000   0.0000   0.0000   0.0000   0.0000

          k = 0.8750 0.3608-0.3572 (   768 PWs)   bands (ev):

    -3.6233   0.2300   2.7582   4.1296   8.8804   9.5461  10.9945  11.8991
    14.9514  15.6464  17.9256  18.7674  20.0936  21.0108  23.1078  24.0020

     occupation numbers 
     1.0000   1.0000   1.0000   1.0000   0.0000   0.0000   0.0000   0.0000
     0.0000   0.0000   0.0000   0.0000   0.0000   0.0000   0.0000   0.0000

          k = 0.8750 0.3608-0.2041 (   764 PWs)   bands (ev):

    -2.9879  -0.6915   2.6272   3.9056   9.0397   9.1629  11.8648  13.0916
    13.3221  16.5301  17.5748  18.2964  21.2923  21.4211  23.9245  24.2632

     occupation numbers 
     1.0000   1.0000   1.0000   1.0000   0.0000   0.0000   0.0000   0.0000
     0.0000   0.0000   0.0000   0.0000   0.0000   0.0000   0.0000   0.0000

          k = 0.8750 0.3608-0.0510 (   768 PWs)   bands (ev):

    -3.6233   0.2300   2.7582   4.1296   8.8804   9.5461  10.9945  11.8991
    14.9514  15.6464  17.9256  18.7674  20.0936  21.0108  23.1078  24.0020

     occupation numbers 
     1.0000   1.0000   1.0000   1.0000   0.0000   0.0000   0.0000   0.0000
     0.0000   0.0000   0.0000   0.0000   0.0000   0.0000   0.0000   0.0000

          k = 0.8750 0.3608 0.1021 (   765 PWs)   bands (ev):

    -4.4935   1.7521   3.3624   4.6193   8.4587   9.8400  10.2215  11.4615
    13.7317  16.1263  16.9859  18.0546  19.7581  20.9649  21.7107  24.0317

     occupation numbers 
     1.0000   1.0000   1.0000   1.0000   0.0000   0.0000   0.0000   0.0000
     0.0000   0.0000   0.0000   0.0000   0.0000   0.0000   0.0000   0.0000

          k = 0.8750 0.3608 0.2552 (   768 PWs)   bands (ev):

    -5.0706   2.8143   4.7304   4.7956   8.1593   9.6392  10.4436  10.7561
    13.3813  14.1864  15.9601  17.5193  19.0511  20.3023  23.4295  23.8844

     occupation numbers 
     1.0000   1.0000   1.0000   1.0000   0.0000   0.0000   0.0000   0.0000
     0.0000   0.0000   0.0000   0.0000   0.0000   0.0000   0.0000   0.0000

          k = 0.8750 0.3608 0.4082 (   775 PWs)   bands (ev):

    -5.2682   3.3465   4.4285   5.7363   8.9805   9.1177   9.3528  11.4489
    12.3717  13.9845  15.6830  17.1345  18.2907  20.3681  23.5313  23.9823

     occupation numbers 
     1.0000   1.0000   1.0000   1.0000   0.0000   0.0000   0.0000   0.0000
     0.0000   0.0000   0.0000   0.0000   0.0000   0.0000   0.0000   0.0000

          k = 0.8750 0.5052-0.7144 (   769 PWs)   bands (ev):

    -5.5308   4.6730   5.2350   5.2351   8.0259   9.6864   9.6864  10.2386
    12.5009  14.0254  14.9778  17.6599  17.6599  18.1468  23.0887  26.3570

     occupation numbers 
     1.0000   1.0000   1.0000   1.0000   0.0000   0.0000   0.0000   0.0000
     0.0000   0.0000   0.0000   0.0000   0.0000   0.0000   0.0000   0.0000

          k = 0.8750 0.5052-0.5613 (   768 PWs)   bands (ev):

    -5.0706   2.8144   4.7304   4.7956   8.1593   9.6391  10.4436  10.7561
    13.3813  14.1865  15.9600  17.5193  19.0511  20.3023  23.4295  23.8844

     occupation numbers 
     1.0000   1.0000   1.0000   1.0000   0.0000   0.0000   0.0000   0.0000
     0.0000   0.0000   0.0000   0.0000   0.0000   0.0000   0.0000   0.0000

          k = 0.8750 0.5052-0.4082 (   775 PWs)   bands (ev):

    -4.2714   0.7891   4.2106   4.4648   8.2443   9.6068  10.4556  11.4584
    15.2899  15.3004  15.8151  19.2851  19.3054  21.0544  22.5565  23.4440

     occupation numbers 
     1.0000   1.0000   1.0000   1.0000   0.0000   0.0000   0.0000   0.0000
     0.0000   0.0000   0.0000   0.0000   0.0000   0.0000   0.0000   0.0000

          k = 0.8750 0.5052-0.2552 (   763 PWs)   bands (ev):

    -3.4312  -0.6437   3.7724   4.4872   8.1791   9.5048  10.1056  13.3239
    14.9662  16.4393  17.4271  17.5566  18.3408  20.8457  24.1138  25.4642

     occupation numbers 
     1.0000   1.0000   1.0000   1.0000   0.0000   0.0000   0.0000   0.0000
     0.0000   0.0000   0.0000   0.0000   0.0000   0.0000   0.0000   0.0000

          k = 0.8750 0.5052-0.1021 (   768 PWs)   bands (ev):

    -3.6689  -0.2818   3.5963   4.7779   8.3285   9.6251   9.8744  13.8475
    14.0791  15.1586  17.0971  18.3033  20.1426  20.5010  22.7050  24.4669

     occupation numbers 
     1.0000   1.0000   1.0000   1.0000   0.0000   0.0000   0.0000   0.0000
     0.0000   0.0000   0.0000   0.0000   0.0000   0.0000   0.0000   0.0000

          k = 0.8750 0.5052 0.0510 (   773 PWs)   bands (ev):

    -4.5717   1.4364   3.7502   5.2616   8.6710   9.6708   9.8551  12.2308
    12.4941  15.7678  15.9785  18.3244  19.8684  21.3183  22.2260  23.8087

     occupation numbers 
     1.0000   1.0000   1.0000   1.0000   0.0000   0.0000   0.0000   0.0000
     0.0000   0.0000   0.0000   0.0000   0.0000   0.0000   0.0000   0.0000

          k = 0.8750 0.5052 0.2041 (   775 PWs)   bands (ev):

    -5.2682   3.3466   4.4285   5.7362   8.9804   9.1177   9.3528  11.4489
    12.3717  13.9846  15.6829  17.1344  18.2907  20.3682  23.5313  23.9823

     occupation numbers 
     1.0000   1.0000   1.0000   1.0000   0.0000   0.0000   0.0000   0.0000
     0.0000   0.0000   0.0000   0.0000   0.0000   0.0000   0.0000   0.0000

          k = 0.8750 0.5052 0.3572 (   770 PWs)   bands (ev):

    -5.5984   4.4308   5.7430   5.7431   8.4568   8.9826   8.9827  10.5535
    13.2525  13.2525  14.6832  16.6450  18.3393  18.3394  22.5159  26.8343

     occupation numbers 
     1.0000   1.0000   1.0000   1.0000   0.0000   0.0000   0.0000   0.0000
     0.0000   0.0000   0.0000   0.0000   0.0000   0.0000   0.0000   0.0000

     highest occupied, lowest unoccupied level (ev):     6.0283    6.6639

     Writing all to output data dir ./out/aiida.save/ :
     XML data file, pseudopotentials, collected wavefunctions
 
     init_run     :      0.04s CPU      0.11s WALL (       1 calls)
     electrons    :     17.04s CPU     18.08s WALL (       1 calls)

     Called by init_run:
     wfcinit      :      0.00s CPU      0.00s WALL (       1 calls)
     wfcinit:atom :      0.00s CPU      0.01s WALL (     512 calls)
     wfcinit:wfcr :      0.59s CPU      0.65s WALL (     512 calls)
     potinit      :      0.00s CPU      0.04s WALL (       1 calls)
     hinit0       :      0.03s CPU      0.05s WALL (       1 calls)

     Called by electrons:
     c_bands      :     17.03s CPU     18.07s WALL (       1 calls)
     v_of_rho     :      0.00s CPU      0.00s WALL (       1 calls)
     v_h          :      0.00s CPU      0.00s WALL (       1 calls)
     v_xc         :      0.00s CPU      0.00s WALL (       1 calls)
     newd         :      0.01s CPU      0.01s WALL (       1 calls)

     Called by c_bands:
     init_us_2    :      0.01s CPU      0.01s WALL (     512 calls)
     init_us_2:cp :      0.01s CPU      0.01s WALL (     512 calls)
     cegterg      :     16.12s CPU     17.00s WALL (    1090 calls)

     Called by sum_band:

     Called by *egterg:
     cdiaghg      :      3.69s CPU      3.88s WALL (   16800 calls)
     cegterg:over :      0.67s CPU      0.72s WALL (   16288 calls)
     cegterg:upda :      0.14s CPU      0.15s WALL (   16288 calls)
     cegterg:last :      0.29s CPU      0.31s WALL (   10380 calls)
     h_psi        :     11.36s CPU     12.01s WALL (   17890 calls)
     s_psi        :      0.18s CPU      0.19s WALL (   17890 calls)
     g_psi        :      0.04s CPU      0.04s WALL (   16288 calls)

     Called by h_psi:
     h_psi:calbec :      0.40s CPU      0.43s WALL (   17890 calls)
     vloc_psi     :     10.64s CPU     11.25s WALL (   17890 calls)
     add_vuspsi   :      0.23s CPU      0.24s WALL (   17890 calls)

     General routines
     calbec       :      0.38s CPU      0.40s WALL (   17890 calls)
     fft          :      0.00s CPU      0.00s WALL (      13 calls)
     ffts         :      0.00s CPU      0.00s WALL (       1 calls)
     fftw         :      9.38s CPU      9.92s WALL (  336666 calls)
     interpolate  :      0.00s CPU      0.00s WALL (       1 calls)
     davcio       :      0.01s CPU      0.07s WALL (    1024 calls)
 
     Parallel routines
 
     PWSCF        :     17.46s CPU     21.03s WALL

 
   This run was terminated on:  15:58: 6  17Apr2025            

=------------------------------------------------------------------------------=
   JOB DONE.
=------------------------------------------------------------------------------=
