
     Program PWSCF v.7.3 starts on  4May2025 at  0:57:27 

     This program is part of the open-source Quantum ESPRESSO suite
     for quantum simulation of materials; please cite
         "P. Giannozzi et al., J. Phys.:Condens. Matter 21 395502 (2009);
         "P. Giannozzi et al., J. Phys.:Condens. Matter 29 465901 (2017);
         "P. Giannozzi et al., J. Chem. Phys. 152 154105 (2020);
          URL http://www.quantum-espresso.org", 
     in publications or presentations arising from this work. More details at
     http://www.quantum-espresso.org/quote

     Parallel version (MPI), running on    12 processors

     MPI processes distributed on     1 nodes
     124109 MiB available memory on the printing compute node when the environment starts
 
     Reading input from aiida.in

     Current dimensions of program PWSCF are:
     Max number of different atomic species (ntypx) = 10
     Max number of k-points (npk) =  40000
     Max angular momentum in pseudopotentials (lmaxx) =  4
     file Si.rel-pbe-n-kjpaw_psl.0.1.UPF: wavefunction(s)  3S renormalized
     Message from routine set_cutoff:
     ecutrho < 4*ecutwfc, are you sure?
     Message from routine setup:
     using ibrav=0 with symmetry is DISCOURAGED, use correct ibrav instead
 
     R & G space division:  proc/nbgrp/npool/nimage =      12
     Subspace diagonalization in iterative solution of the eigenvalue problem:
     a serial algorithm will be used

 
     Parallelization info
     --------------------
     sticks:   dense  smooth     PW     G-vecs:    dense   smooth      PW
     Min          46      46     11                  720      720      88
     Max          47      47     12                  723      723      90
     Sum         559     559    139                 8657     8657    1067
 
     Using Slab Decomposition
 


     bravais-lattice index     =            0
     lattice parameter (alat)  =       7.3075  a.u.
     unit-cell volume          =     275.9279 (a.u.)^3
     number of atoms/cell      =            2
     number of atomic types    =            1
     number of electrons       =         8.00
     number of Kohn-Sham states=            8
     kinetic-energy cutoff     =      38.0000  Ry
     charge density cutoff     =     151.0000  Ry
     scf convergence threshold =      1.0E-03
     mixing beta               =       0.7000
     number of iterations used =            8  plain     mixing
     Exchange-correlation= SLA  PW   PBX  PBC
                           (   1   4   3   4   0   0   0)
     Non magnetic calculation with spin-orbit


     celldm(1)=   7.307523  celldm(2)=   0.000000  celldm(3)=   0.000000
     celldm(4)=   0.000000  celldm(5)=   0.000000  celldm(6)=   0.000000

     crystal axes: (cart. coord. in units of alat)
               a(1) = (   1.000000   0.000000   0.000000 )  
               a(2) = (   0.500000   0.866025   0.000000 )  
               a(3) = (   0.500000   0.288675   0.816497 )  

     reciprocal axes: (cart. coord. in units 2 pi/alat)
               b(1) = (  1.000000 -0.577350 -0.408248 )  
               b(2) = (  0.000000  1.154701 -0.408248 )  
               b(3) = (  0.000000  0.000000  1.224745 )  


     PseudoPot. # 1 for Si read from file:
     ./pseudo/Si.rel-pbe-n-kjpaw_psl.0.1.UPF
     MD5 check sum: 67eb1bc5c689d7b48afd963eedacb1f1
     Pseudo is Projector augmented-wave + core cor, Zval =  4.0
     Generated using "atomic" code by A. Dal Corso  v.5.0.2 svn rev. 9415
     Shape of augmentation charge: PSQ
     Using radial grid of 1141 points,  6 beta functions with: 
                l(1) =   0
                l(2) =   0
                l(3) =   1
                l(4) =   1
                l(5) =   1
                l(6) =   1
     Q(r) pseudized with 0 coefficients 


     atomic species   valence    mass     pseudopotential
     Si                4.00    28.08500     Si( 1.00)

     12 Sym. Ops., with inversion, found ( 6 have fractional translation)


                                    s                        frac. trans.

      isym =  1     identity                                     

 cryst.   s( 1) = (     1          0          0      )
                  (     0          1          0      )
                  (     0          0          1      )

 cart.    s( 1) = (  1.0000000  0.0000000  0.0000000 )
                  (  0.0000000  1.0000000  0.0000000 )
                  (  0.0000000  0.0000000  1.0000000 )


      isym =  2     180 deg rotation - cart. axis [1,0,0]        

 cryst.   s( 2) = (     1          0          0      )    f =( -0.2500000 )
                  (     1         -1          0      )       ( -0.2500000 )
                  (     1          0         -1      )       ( -0.2500000 )

 cart.    s( 2) = (  1.0000000  0.0000000  0.0000000 )    f =( -0.5000000 )
                  (  0.0000000 -1.0000000  0.0000000 )       ( -0.2886751 )
                  (  0.0000000  0.0000000 -1.0000000 )       ( -0.2041241 )


      isym =  3     120 deg rotation - cryst. axis [0,0,1]       

 cryst.   s( 3) = (    -1          1          0      )
                  (    -1          0          0      )
                  (    -1          0          1      )

 cart.    s( 3) = ( -0.5000000 -0.8660254  0.0000000 )
                  (  0.8660254 -0.5000000  0.0000000 )
                  (  0.0000000  0.0000000  1.0000000 )


      isym =  4     120 deg rotation - cryst. axis [0,0,-1]      

 cryst.   s( 4) = (     0         -1          0      )
                  (     1         -1          0      )
                  (     0         -1          1      )

 cart.    s( 4) = ( -0.5000000  0.8660254 -0.0000000 )
                  ( -0.8660254 -0.5000000  0.0000000 )
                  (  0.0000000  0.0000000  1.0000000 )


      isym =  5     180 deg rotation - cryst. axis [0,1,0]       

 cryst.   s( 5) = (     0         -1          0      )    f =( -0.2500000 )
                  (    -1          0          0      )       ( -0.2500000 )
                  (     0          0         -1      )       ( -0.2500000 )

 cart.    s( 5) = ( -0.5000000 -0.8660254  0.0000000 )    f =( -0.5000000 )
                  ( -0.8660254  0.5000000 -0.0000000 )       ( -0.2886751 )
                  (  0.0000000  0.0000000 -1.0000000 )       ( -0.2041241 )


      isym =  6     180 deg rotation - cryst. axis [1,1,0]       

 cryst.   s( 6) = (    -1          1          0      )    f =( -0.2500000 )
                  (     0          1          0      )       ( -0.2500000 )
                  (     0          1         -1      )       ( -0.2500000 )

 cart.    s( 6) = ( -0.5000000  0.8660254 -0.0000000 )    f =( -0.5000000 )
                  (  0.8660254  0.5000000 -0.0000000 )       ( -0.2886751 )
                  (  0.0000000  0.0000000 -1.0000000 )       ( -0.2041241 )


      isym =  7     inversion                                    

 cryst.   s( 7) = (    -1          0          0      )    f =( -0.2500000 )
                  (     0         -1          0      )       ( -0.2500000 )
                  (     0          0         -1      )       ( -0.2500000 )

 cart.    s( 7) = ( -1.0000000  0.0000000  0.0000000 )    f =( -0.5000000 )
                  (  0.0000000 -1.0000000  0.0000000 )       ( -0.2886751 )
                  (  0.0000000  0.0000000 -1.0000000 )       ( -0.2041241 )


      isym =  8     inv. 180 deg rotation - cart. axis [1,0,0]   

 cryst.   s( 8) = (    -1          0          0      )
                  (    -1          1          0      )
                  (    -1          0          1      )

 cart.    s( 8) = ( -1.0000000  0.0000000  0.0000000 )
                  (  0.0000000  1.0000000  0.0000000 )
                  (  0.0000000  0.0000000  1.0000000 )


      isym =  9     inv. 120 deg rotation - cryst. axis [0,0,1]  

 cryst.   s( 9) = (     1         -1          0      )    f =( -0.2500000 )
                  (     1          0          0      )       ( -0.2500000 )
                  (     1          0         -1      )       ( -0.2500000 )

 cart.    s( 9) = (  0.5000000  0.8660254 -0.0000000 )    f =( -0.5000000 )
                  ( -0.8660254  0.5000000 -0.0000000 )       ( -0.2886751 )
                  (  0.0000000  0.0000000 -1.0000000 )       ( -0.2041241 )


      isym = 10     inv. 120 deg rotation - cryst. axis [0,0,-1] 

 cryst.   s(10) = (     0          1          0      )    f =( -0.2500000 )
                  (    -1          1          0      )       ( -0.2500000 )
                  (     0          1         -1      )       ( -0.2500000 )

 cart.    s(10) = (  0.5000000 -0.8660254  0.0000000 )    f =( -0.5000000 )
                  (  0.8660254  0.5000000 -0.0000000 )       ( -0.2886751 )
                  (  0.0000000  0.0000000 -1.0000000 )       ( -0.2041241 )


      isym = 11     inv. 180 deg rotation - cryst. axis [0,1,0]  

 cryst.   s(11) = (     0          1          0      )
                  (     1          0          0      )
                  (     0          0          1      )

 cart.    s(11) = (  0.5000000  0.8660254 -0.0000000 )
                  (  0.8660254 -0.5000000  0.0000000 )
                  (  0.0000000  0.0000000  1.0000000 )


      isym = 12     inv. 180 deg rotation - cryst. axis [1,1,0]  

 cryst.   s(12) = (     1         -1          0      )
                  (     0         -1          0      )
                  (     0         -1          1      )

 cart.    s(12) = (  0.5000000 -0.8660254  0.0000000 )
                  ( -0.8660254 -0.5000000  0.0000000 )
                  (  0.0000000  0.0000000  1.0000000 )


   Cartesian axes

     site n.     atom                  positions (alat units)
         1        Si     tau(   1) = (   1.5000000   0.8660254   0.6123724  )
         2        Si     tau(   2) = (   1.0000000   0.5773503   0.4082483  )

   Crystallographic axes

     site n.     atom                  positions (cryst. coord.)
         1        Si     tau(   1) = (  0.7500000  0.7500000  0.7500000  )
         2        Si     tau(   2) = (  0.5000000  0.5000000  0.5000000  )

     number of k points=     1
                       cart. coord. in units 2pi/alat
        k(    1) = (   0.0000000   0.0000000   0.0000000), wk =   1.0000000

                       cryst. coord.
        k(    1) = (   0.0000000   0.0000000   0.0000000), wk =   1.0000000

     Dense  grid:     8657 G-vectors     FFT dimensions: (  32,  32,  32)

     Dynamical RAM for                 wfc:       0.02 MB

     Dynamical RAM for     wfc (w. buffer):       0.02 MB

     Dynamical RAM for           str. fact:       0.01 MB

     Dynamical RAM for           local pot:       0.00 MB

     Dynamical RAM for          nlocal pot:       0.04 MB

     Dynamical RAM for                qrad:       0.59 MB

     Dynamical RAM for          rho,v,vnew:       0.41 MB

     Dynamical RAM for               rhoin:       0.14 MB

     Dynamical RAM for            rho*nmix:       0.71 MB

     Dynamical RAM for           G-vectors:       0.05 MB

     Dynamical RAM for          h,s,v(r/c):       0.01 MB

     Dynamical RAM for          <psi|beta>:       0.01 MB

     Dynamical RAM for                 psi:       0.04 MB

     Dynamical RAM for                hpsi:       0.04 MB

     Dynamical RAM for                spsi:       0.04 MB

     Dynamical RAM for      wfcinit/wfcrot:       0.07 MB

     Dynamical RAM for           addusdens:       1.26 MB

     Estimated static dynamical RAM per process >       1.47 MB

     Estimated max dynamical RAM per process >       3.44 MB

     Estimated total dynamical RAM >      41.22 MB

     Check: negative core charge=   -0.000003

     Initial potential from superposition of free atoms

     starting charge       7.9989, renormalised to       8.0000
     Starting wfcs are   16 randomized atomic wfcs
     Checking if some PAW data can be deallocated... 

     total cpu time spent up to now is        0.2 secs

     Self-consistent Calculation

     iteration #  1     ecut=    38.00 Ry     beta= 0.70
     Davidson diagonalization with overlap

---- Real-time Memory Report at c_bands before calling an iterative solver
            81 MiB given to the printing process from OS
             0 MiB allocation reported by mallinfo(arena+hblkhd)
        125922 MiB available memory on the node where the printing process lives
------------------
     ethr =  1.00E-02,  avg # of iterations =  2.0

     total cpu time spent up to now is        0.2 secs

     total energy              =     -92.21560073 Ry
     estimated scf accuracy    <       0.30570758 Ry

     iteration #  2     ecut=    38.00 Ry     beta= 0.70
     Davidson diagonalization with overlap

---- Real-time Memory Report at c_bands before calling an iterative solver
            88 MiB given to the printing process from OS
             0 MiB allocation reported by mallinfo(arena+hblkhd)
        127205 MiB available memory on the node where the printing process lives
------------------
     ethr =  3.82E-03,  avg # of iterations =  1.0

     total cpu time spent up to now is        0.2 secs

     total energy              =     -92.22772372 Ry
     estimated scf accuracy    <       0.01480974 Ry

     iteration #  3     ecut=    38.00 Ry     beta= 0.70
     Davidson diagonalization with overlap

---- Real-time Memory Report at c_bands before calling an iterative solver
            89 MiB given to the printing process from OS
             0 MiB allocation reported by mallinfo(arena+hblkhd)
        127414 MiB available memory on the node where the printing process lives
------------------
     ethr =  1.85E-04,  avg # of iterations =  2.0

     total cpu time spent up to now is        0.3 secs

     End of self-consistent calculation

          k = 0.0000 0.0000 0.0000 (  1067 PWs)   bands (ev):

    -5.0286  -5.0285   6.9646   6.9646   7.0108   7.0108   7.0109   7.0110

     occupation numbers 
     1.0000   1.0000   1.0000   1.0000   1.0000   1.0000   1.0000   1.0000

     highest occupied level (ev):     7.0110

!    total energy              =     -92.22980689 Ry
     total all-electron energy =     -1158.911865 Ry
     estimated scf accuracy    <       0.00032633 Ry

     The total energy is the sum of the following terms:
     one-electron contribution =       6.50765204 Ry
     hartree contribution      =       1.71065344 Ry
     xc contribution           =     -12.52809037 Ry
     ewald contribution        =     -16.67997837 Ry
     one-center paw contrib.   =     -71.24004363 Ry
      -> PAW hartree energy AE =       4.41427089 Ry
      -> PAW hartree energy PS =      -4.39717069 Ry
      -> PAW xc energy AE      =     -41.21360109 Ry
      -> PAW xc energy PS      =       5.57647907 Ry
      -> total E_H with PAW    =       1.72775365 Ry
      -> total E_XC with PAW   =     -48.16521239 Ry

     convergence has been achieved in   3 iterations

     Writing all to output data dir ./out/aiida.save/ :
     XML data file, charge density, pseudopotentials, collected wavefunctions
 
     init_run     :      0.05s CPU      0.10s WALL (       1 calls)
     electrons    :      0.05s CPU      0.06s WALL (       1 calls)

     Called by init_run:
     wfcinit      :      0.00s CPU      0.00s WALL (       1 calls)
     wfcinit:atom :      0.00s CPU      0.00s WALL (       1 calls)
     wfcinit:wfcr :      0.00s CPU      0.00s WALL (       1 calls)
     potinit      :      0.01s CPU      0.02s WALL (       1 calls)
     hinit0       :      0.03s CPU      0.07s WALL (       1 calls)

     Called by electrons:
     c_bands      :      0.01s CPU      0.01s WALL (       3 calls)
     sum_band     :      0.01s CPU      0.01s WALL (       3 calls)
     v_of_rho     :      0.00s CPU      0.00s WALL (       4 calls)
     v_h          :      0.00s CPU      0.00s WALL (       4 calls)
     v_xc         :      0.00s CPU      0.00s WALL (       4 calls)
     newd         :      0.01s CPU      0.01s WALL (       4 calls)
     PAW_pot      :      0.03s CPU      0.04s WALL (       4 calls)
     mix_rho      :      0.00s CPU      0.00s WALL (       3 calls)

     Called by c_bands:
     init_us_2    :      0.00s CPU      0.00s WALL (       7 calls)
     init_us_2:cp :      0.00s CPU      0.00s WALL (       7 calls)
     cegterg      :      0.01s CPU      0.01s WALL (       3 calls)

     Called by sum_band:
     sum_band:wei :      0.00s CPU      0.00s WALL (       3 calls)
     sum_band:loo :      0.00s CPU      0.00s WALL (       3 calls)
     sum_band:buf :      0.00s CPU      0.00s WALL (       3 calls)
     sum_band:ini :      0.00s CPU      0.00s WALL (       3 calls)
     sum_band:cal :      0.00s CPU      0.00s WALL (       3 calls)
     sum_band:bec :      0.00s CPU      0.00s WALL (       3 calls)
     addusdens    :      0.00s CPU      0.00s WALL (       3 calls)
                                        0.00s GPU  (       3 calls)
     addusd:skk   :      0.00s CPU      0.00s WALL (       3 calls)
                                        0.00s GPU  (       3 calls)

     Called by *egterg:
     cdiaghg      :      0.00s CPU      0.00s WALL (       8 calls)
     cegterg:over :      0.00s CPU      0.00s WALL (       5 calls)
     cegterg:upda :      0.00s CPU      0.00s WALL (       5 calls)
     cegterg:last :      0.00s CPU      0.00s WALL (       5 calls)
     h_psi        :      0.01s CPU      0.01s WALL (       9 calls)
     s_psi        :      0.00s CPU      0.00s WALL (       9 calls)
     g_psi        :      0.00s CPU      0.00s WALL (       5 calls)

     Called by h_psi:
     h_psi:calbec :      0.00s CPU      0.00s WALL (       9 calls)
     vloc_psi     :      0.01s CPU      0.01s WALL (       9 calls)
     add_vuspsi   :      0.00s CPU      0.00s WALL (       9 calls)

     General routines
     calbec       :      0.00s CPU      0.00s WALL (      12 calls)
     fft          :      0.02s CPU      0.06s WALL (      62 calls)
     ffts         :      0.00s CPU      0.00s WALL (      12 calls)
     fftw         :      0.01s CPU      0.01s WALL (     352 calls)
 
     Parallel routines

     PAW routines
     PAW_pot      :      0.03s CPU      0.04s WALL (       4 calls)
     PAW_symme    :      0.00s CPU      0.00s WALL (       7 calls)
 
     PWSCF        :      0.17s CPU      0.28s WALL

 
   This run was terminated on:   0:57:27   4May2025            

=------------------------------------------------------------------------------=
   JOB DONE.
=------------------------------------------------------------------------------=
