
     Program PWSCF v.7.3 starts on  3May2025 at 20:28:49 

     This program is part of the open-source Quantum ESPRESSO suite
     for quantum simulation of materials; please cite
         "P. Giannozzi et al., J. Phys.:Condens. Matter 21 395502 (2009);
         "P. Giannozzi et al., J. Phys.:Condens. Matter 29 465901 (2017);
         "P. Giannozzi et al., J. Chem. Phys. 152 154105 (2020);
          URL http://www.quantum-espresso.org", 
     in publications or presentations arising from this work. More details at
     http://www.quantum-espresso.org/quote

     Parallel version (MPI), running on    12 processors

     MPI processes distributed on     1 nodes
     22182 MiB available memory on the printing compute node when the environment starts
 
     Reading input from aiida.in

     Current dimensions of program PWSCF are:
     Max number of different atomic species (ntypx) = 10
     Max number of k-points (npk) =  40000
     Max angular momentum in pseudopotentials (lmaxx) =  4
     file Si.rel-pbe-n-kjpaw_psl.0.1.UPF: wavefunction(s)  3S renormalized
     Message from routine set_cutoff:
     ecutrho < 4*ecutwfc, are you sure?

     Atomic positions and unit cell read from directory:
     ./out/aiida.save/
 
 
     R & G space division:  proc/nbgrp/npool/nimage =      12
     Subspace diagonalization in iterative solution of the eigenvalue problem:
     a serial algorithm will be used

 
     Parallelization info
     --------------------
     sticks:   dense  smooth     PW     G-vecs:    dense   smooth      PW
     Min          46      46     11                  720      720      88
     Max          47      47     12                  723      723      90
     Sum         559     559    139                 8657     8657    1067
 
     Using Slab Decomposition
 


     bravais-lattice index     =            0
     lattice parameter (alat)  =       7.3075  a.u.
     unit-cell volume          =     275.9279 (a.u.)^3
     number of atoms/cell      =            2
     number of atomic types    =            1
     number of electrons       =         8.00
     number of Kohn-Sham states=           32
     kinetic-energy cutoff     =      38.0000  Ry
     charge density cutoff     =     151.0000  Ry
     Exchange-correlation= SLA  PW   PBX  PBC
                           (   1   4   3   4   0   0   0)
     Non magnetic calculation with spin-orbit


     celldm(1)=   7.307523  celldm(2)=   0.000000  celldm(3)=   0.000000
     celldm(4)=   0.000000  celldm(5)=   0.000000  celldm(6)=   0.000000

     crystal axes: (cart. coord. in units of alat)
               a(1) = (   1.000000   0.000000   0.000000 )  
               a(2) = (   0.500000   0.866025   0.000000 )  
               a(3) = (   0.500000   0.288675   0.816497 )  

     reciprocal axes: (cart. coord. in units 2 pi/alat)
               b(1) = (  1.000000 -0.577350 -0.408248 )  
               b(2) = (  0.000000  1.154701 -0.408248 )  
               b(3) = (  0.000000  0.000000  1.224745 )  


     PseudoPot. # 1 for Si read from file:
     ./pseudo/Si.rel-pbe-n-kjpaw_psl.0.1.UPF
     MD5 check sum: 67eb1bc5c689d7b48afd963eedacb1f1
     Pseudo is Projector augmented-wave + core cor, Zval =  4.0
     Generated using "atomic" code by A. Dal Corso  v.5.0.2 svn rev. 9415
     Shape of augmentation charge: PSQ
     Using radial grid of 1141 points,  6 beta functions with: 
                l(1) =   0
                l(2) =   0
                l(3) =   1
                l(4) =   1
                l(5) =   1
                l(6) =   1
     Q(r) pseudized with 0 coefficients 


     atomic species   valence    mass     pseudopotential
     Si                4.00    28.08500     Si( 1.00)

     No symmetry found


                                    s                        frac. trans.

      isym =  1     identity                                     

 cryst.   s( 1) = (     1          0          0      )
                  (     0          1          0      )
                  (     0          0          1      )

 cart.    s( 1) = (  1.0000000  0.0000000  0.0000000 )
                  (  0.0000000  1.0000000  0.0000000 )
                  (  0.0000000  0.0000000  1.0000000 )


   Cartesian axes

     site n.     atom                  positions (alat units)
         1        Si     tau(   1) = (   1.5000000   0.8660254   0.6123724  )
         2        Si     tau(   2) = (   1.0000000   0.5773503   0.4082483  )

   Crystallographic axes

     site n.     atom                  positions (cryst. coord.)
         1        Si     tau(   1) = (  0.7500000  0.7500000  0.7500000  )
         2        Si     tau(   2) = (  0.5000000  0.5000000  0.5000000  )

     number of k points=     1
                       cart. coord. in units 2pi/alat
        k(    1) = (   0.0000000   0.0000000   0.0000000), wk =   1.0000000

                       cryst. coord.
        k(    1) = (   0.0000000   0.0000000   0.0000000), wk =   1.0000000

     Dense  grid:     8657 G-vectors     FFT dimensions: (  30,  30,  30)

     Dynamical RAM for                 wfc:       0.09 MB

     Dynamical RAM for     wfc (w. buffer):       0.09 MB

     Dynamical RAM for           str. fact:       0.01 MB

     Dynamical RAM for           local pot:       0.00 MB

     Dynamical RAM for          nlocal pot:       0.04 MB

     Dynamical RAM for                qrad:       0.59 MB

     Dynamical RAM for          rho,v,vnew:       0.38 MB

     Dynamical RAM for           G-vectors:       0.05 MB

     Dynamical RAM for          h,s,v(r/c):       0.19 MB

     Dynamical RAM for          <psi|beta>:       0.03 MB

     Dynamical RAM for                 psi:       0.18 MB

     Dynamical RAM for                hpsi:       0.18 MB

     Dynamical RAM for                spsi:       0.18 MB

     Dynamical RAM for      wfcinit/wfcrot:       0.16 MB

     Dynamical RAM for           addusdens:       1.26 MB

     Estimated static dynamical RAM per process >       1.34 MB

     Estimated max dynamical RAM per process >       2.60 MB

     Estimated total dynamical RAM >      31.21 MB

     Check: negative core charge=   -0.000003

     The potential is recalculated from file :
     ./out/aiida.save/charge-density

     Starting wfcs are   16 randomized atomic wfcs +   16 random wfcs
     Checking if some PAW data can be deallocated... 

     Band Structure Calculation
     Davidson diagonalization with overlap

     Computing kpt #:     1  of     1
     total cpu time spent up to now is        0.2 secs

     ethr =  1.25E-05,  avg # of iterations = 16.0

     total cpu time spent up to now is        0.2 secs

     End of band structure calculation

          k = 0.0000 0.0000 0.0000 (  1067 PWs)   bands (ev):

    -5.0306  -5.0306   6.9503   6.9503   6.9966   6.9966   6.9966   6.9966
     9.2346   9.2346   9.2679   9.2679   9.2679   9.2679  10.1737  10.1737
    14.1551  14.1551  14.2681  14.2681  14.2681  14.2681  17.4955  17.4955
    17.5063  17.5063  17.5063  17.5063  21.4372  21.4372  29.6443  29.6464

     occupation numbers 
     1.0000   1.0000   1.0000   1.0000   1.0000   1.0000   1.0000   1.0000
     0.0000   0.0000   0.0000   0.0000   0.0000   0.0000   0.0000   0.0000
     0.0000   0.0000   0.0000   0.0000   0.0000   0.0000   0.0000   0.0000
     0.0000   0.0000   0.0000   0.0000   0.0000   0.0000   0.0000   0.0000

     highest occupied, lowest unoccupied level (ev):     6.9966    9.2346

     Writing all to output data dir ./out/aiida.save/ :
     XML data file, pseudopotentials, collected wavefunctions
 
     init_run     :      0.03s CPU      0.06s WALL (       1 calls)
     electrons    :      0.06s CPU      0.06s WALL (       1 calls)

     Called by init_run:
     wfcinit      :      0.00s CPU      0.00s WALL (       1 calls)
     wfcinit:atom :      0.00s CPU      0.00s WALL (       1 calls)
     wfcinit:wfcr :      0.01s CPU      0.01s WALL (       1 calls)
     potinit      :      0.01s CPU      0.02s WALL (       1 calls)
     hinit0       :      0.01s CPU      0.04s WALL (       1 calls)

     Called by electrons:
     c_bands      :      0.06s CPU      0.06s WALL (       1 calls)
     v_of_rho     :      0.00s CPU      0.00s WALL (       1 calls)
     v_h          :      0.00s CPU      0.00s WALL (       1 calls)
     v_xc         :      0.00s CPU      0.00s WALL (       1 calls)
     newd         :      0.00s CPU      0.00s WALL (       1 calls)
     PAW_pot      :      0.01s CPU      0.01s WALL (       1 calls)

     Called by c_bands:
     init_us_2    :      0.00s CPU      0.00s WALL (       1 calls)
     init_us_2:cp :      0.00s CPU      0.00s WALL (       1 calls)
     cegterg      :      0.05s CPU      0.06s WALL (       1 calls)

     Called by sum_band:

     Called by *egterg:
     cdiaghg      :      0.02s CPU      0.02s WALL (      17 calls)
     cegterg:over :      0.00s CPU      0.00s WALL (      16 calls)
     cegterg:upda :      0.00s CPU      0.00s WALL (      16 calls)
     cegterg:last :      0.00s CPU      0.00s WALL (       8 calls)
     h_psi        :      0.04s CPU      0.04s WALL (      18 calls)
     s_psi        :      0.00s CPU      0.00s WALL (      18 calls)
     g_psi        :      0.00s CPU      0.00s WALL (      16 calls)

     Called by h_psi:
     h_psi:calbec :      0.00s CPU      0.00s WALL (      18 calls)
     vloc_psi     :      0.03s CPU      0.04s WALL (      18 calls)
     add_vuspsi   :      0.00s CPU      0.00s WALL (      18 calls)

     General routines
     calbec       :      0.00s CPU      0.00s WALL (      18 calls)
     fft          :      0.00s CPU      0.03s WALL (      15 calls)
     fftw         :      0.03s CPU      0.03s WALL (    1104 calls)
     davcio       :      0.00s CPU      0.00s WALL (       2 calls)
 
     Parallel routines

     PAW routines
     PAW_pot      :      0.01s CPU      0.01s WALL (       1 calls)
 
     PWSCF        :      0.17s CPU      0.24s WALL

 
   This run was terminated on:  20:28:49   3May2025            

=------------------------------------------------------------------------------=
   JOB DONE.
=------------------------------------------------------------------------------=
