 written on 19Apr2025 at 14:15:59 
           8
         543
    2    2    1    2    1    1    2    1    1    1    2    1    4    2    1
    2    1    1    2    1    1    1    2    1    1    1    2    2    1    1
    1    1    2    1    1    1    1    1    2    1    1    1    1    1    1
    4    1    1    1    2    1    2    2    1    1    1    2    1    1    1
    1    2    1    1    1    1    1    2    1    1    1    1    1    1    2
    1    1    1    1    1    1    1    1    1    1    1    1    1    1    1
    1    1    1    1    1    1    1    1    2    1    1    1    1    1    1
    1    1    1    1    1    2    1    1    1    1    1    1    1    1    1
    1    1    1    1    1    1    1    1    1    1    1    1    1    1    1
    1    1    1    1    1    1    1    1    1    1    1    1    1    1    1
    1    1    1    1    1    1    1    1    1    1    1    1    1    2    1
    1    1    1    1    1    1    1    1    1    1    1    1    2    1    1
    1    1    1    1    1    1    1    1    1    1    1    1    1    1    1
    1    1    1    1    1    1    1    1    1    1    1    1    1    1    1
    1    1    1    1    1    1    1    1    1    1    1    1    1    1    1
    1    1    1    1    1    2    1    1    1    1    1    1    1    1    1
    2    1    1    1    2    1    1    1    1    1    1    1    1    1    1
    1    1    1    1    1    1    1    1    1    1    1    1    2    1    1
    1    1    1    1    1    2    1    1    1    1    1    1    1    1    1
    1    1    1    1    1    1    1    1    1    1    1    1    1    2    1
    1    1    2    1    1    1    1    1    1    1    1    1    2    1    1
    1    1    1    1    1    1    1    1    1    1    1    1    1    1    1
    1    1    1    1    1    1    1    1    1    1    1    1    1    1    1
    1    1    1    1    1    1    1    1    1    1    1    1    1    1    1
    1    1    1    1    1    2    1    1    1    1    1    1    1    1    1
    1    1    1    1    2    1    1    1    1    1    1    1    1    1    1
    1    1    1    1    1    1    1    1    1    1    1    1    1    1    1
    1    1    1    1    1    1    1    1    1    1    1    1    1    1    1
    1    1    1    1    1    1    1    1    1    1    1    1    2    1    1
    1    1    1    1    1    1    1    1    1    2    1    1    1    1    1
    1    1    1    1    1    1    1    1    1    1    1    1    1    1    1
    1    1    1    2    1    1    1    1    1    1    2    1    1    1    1
    1    2    1    1    1    1    2    1    1    1    2    2    1    2    1
    1    1    4    1    1    1    1    1    1    2    1    1    1    1    1
    2    1    1    1    1    2    2    1    1    1    2    1    1    1    2
    1    1    2    1    2    4    1    2    1    1    1    2    1    1    2
    1    2    2
   -5   -1    3    1    1    0.000421   -0.000014
   -5   -1    3    2    1   -0.000071    0.000007
   -5   -1    3    3    1    0.000009   -0.000010
   -5   -1    3    4    1   -0.000358   -0.000024
   -5   -1    3    5    1    0.000986    0.000006
   -5   -1    3    6    1   -0.000582    0.000014
   -5   -1    3    7    1    0.000481   -0.000009
   -5   -1    3    8    1   -0.000756   -0.000025
   -5   -1    3    1    2   -0.000243   -0.000006
   -5   -1    3    2    2    0.000738    0.000004
   -5   -1    3    3    2    0.000030    0.000019
   -5   -1    3    4    2    0.000084   -0.000011
   -5   -1    3    5    2    0.000446   -0.000009
   -5   -1    3    6    2   -0.000658   -0.000001
   -5   -1    3    7    2    0.001358    0.000036
   -5   -1    3    8    2   -0.000146   -0.000004
   -5   -1    3    1    3   -0.000028    0.000007
   -5   -1    3    2    3    0.000001   -0.000001
   -5   -1    3    3    3    0.000456    0.000029
   -5   -1    3    4    3   -0.000001   -0.000010
   -5   -1    3    5    3   -0.000414    0.000008
   -5   -1    3    6    3    0.001371    0.000034
   -5   -1    3    7    3   -0.000104    0.000021
   -5   -1    3    8    3   -0.001010   -0.000043
   -5   -1    3    1    4    0.000623   -0.000009
   -5   -1    3    2    4   -0.000616    0.000004
   -5   -1    3    3    4   -0.000060   -0.000036
   -5   -1    3    4    4   -0.000568   -0.000017
   -5   -1    3    5    4    0.000843    0.000016
   -5   -1    3    6    4   -0.000111    0.000012
   -5   -1    3    7    4   -0.000909   -0.000039
   -5   -1    3    8    4   -0.000263   -0.000016
   -5   -1    3    1    5    0.000577   -0.000030
   -5   -1    3    2    5   -0.000331   -0.000013
   -5   -1    3    3    5    0.000460   -0.000058
   -5   -1    3    4    5    0.000034    0.000008
   -5   -1    3    5    5    0.000410    0.000001
   -5   -1    3    6    5    0.000240   -0.000006
   -5   -1    3    7    5    0.000037   -0.000003
   -5   -1    3    8    5   -0.000608    0.000008
   -5   -1    3    1    6    0.000307    0.000018
   -5   -1    3    2    6    0.000395    0.000015
   -5   -1    3    3    6    0.000108   -0.000014
   -5   -1    3    4    6    0.000230   -0.000010
   -5   -1    3    5    6    0.000083   -0.000015
   -5   -1    3    6    6    0.000739    0.000008
   -5   -1    3    7    6   -0.000001   -0.000015
   -5   -1    3    8    6   -0.000629    0.000008
   -5   -1    3    1    7   -0.000408    0.000007
   -5   -1    3    2    7    0.000110   -0.000010
   -5   -1    3    3    7    0.000220    0.000017
   -5   -1    3    4    7    0.000362   -0.000029
   -5   -1    3    5    7   -0.000014    0.000015
   -5   -1    3    6    7    0.000088    0.000018
   -5   -1    3    7    7    0.000461    0.000008
   -5   -1    3    8    7   -0.000162   -0.000040
   -5   -1    3    1    8   -0.000045    0.000008
   -5   -1    3    2    8    0.000235   -0.000008
   -5   -1    3    3    8    0.000375   -0.000002
   -5   -1    3    4    8   -0.001057    0.000010
   -5   -1    3    5    8    0.000356    0.000001
   -5   -1    3    6    8    0.000079    0.000014
   -5   -1    3    7    8    0.000019    0.000007
   -5   -1    3    8    8   -0.000564   -0.000017
   -5    0    2    1    1    0.000792   -0.000007
   -5    0    2    2    1    0.000519    0.000017
   -5    0    2    3    1   -0.000029   -0.000001
   -5    0    2    4    1   -0.000824   -0.000020
   -5    0    2    5    1    0.001005   -0.000016
   -5    0    2    6    1   -0.000422    0.000011
   -5    0    2    7    1    0.000146   -0.000015
   -5    0    2    8    1   -0.000361    0.000005
   -5    0    2    1    2    0.000159    0.000015
   -5    0    2    2    2   -0.001054    0.000004
   -5    0    2    3    2   -0.000023    0.000029
   -5    0    2    4    2   -0.000777    0.000015
   -5    0    2    5    2    0.000528   -0.000033
   -5    0    2    6    2   -0.000550    0.000012
   -5    0    2    7    2   -0.000809    0.000017
   -5    0    2    8    2   -0.000437    0.000018
   -5    0    2    1    3   -0.000016   -0.000015
   -5    0    2    2    3   -0.000002    0.000016
   -5    0    2    3    3   -0.000024    0.000021
   -5    0    2    4    3    0.000078   -0.000045
   -5    0    2    5    3   -0.000056    0.000006
   -5    0    2    6    3   -0.000791    0.000015
   -5    0    2    7    3   -0.000122    0.000036
   -5    0    2    8    3    0.001212   -0.000039
   -5    0    2    1    4   -0.000185   -0.000018
   -5    0    2    2    4    0.000588    0.000014
   -5    0    2    3    4    0.000049   -0.000036
   -5    0    2    4    4   -0.000303   -0.000034
   -5    0    2    5    4    0.000209    0.000017
   -5    0    2    6    4   -0.000453   -0.000002
   -5    0    2    7    4    0.001254   -0.000042
   -5    0    2    8    4   -0.000618   -0.000009
   -5    0    2    1    5    0.001676    0.000001
   -5    0    2    2    5    0.000902   -0.000022
   -5    0    2    3    5   -0.000597    0.000006
   -5    0    2    4    5    0.000414    0.000034
   -5    0    2    5    5    0.000781   -0.000003
   -5    0    2    6    5   -0.000173   -0.000015
   -5    0    2    7    5    0.000116    0.000021
   -5    0    2    8    5    0.000188    0.000011
   -5    0    2    1    6   -0.000954    0.000011
   -5    0    2    2    6    0.000086    0.000002
   -5    0    2    3    6    0.000045    0.000018
   -5    0    2    4    6   -0.001066   -0.000002
   -5    0    2    5    6   -0.000507   -0.000016
   -5    0    2    6    6   -0.001055    0.000002
   -5    0    2    7    6   -0.000076   -0.000026
   -5    0    2    8    6    0.000579    0.000025
   -5    0    2    1    7    0.000807    0.000001
   -5    0    2    2    7    0.000169    0.000045
   -5    0    2    3    7   -0.000250    0.000009
   -5    0    2    4    7    0.000078   -0.000045
   -5    0    2    5    7    0.000114   -0.000003
   -5    0    2    6    7   -0.000026    0.000005
   -5    0    2    7    7   -0.000003    0.000022
   -5    0    2    8    7    0.000039   -0.000020
   -5    0    2    1    8   -0.000411   -0.000021
   -5    0    2    2    8   -0.001056    0.000005
   -5    0    2    3    8    0.000076   -0.000031
   -5    0    2    4    8    0.000054   -0.000023
   -5    0    2    5    8    0.000798    0.000015
   -5    0    2    6    8   -0.000766    0.000015
   -5    0    2    7    8    0.000143   -0.000001
   -5    0    2    8    8   -0.000312   -0.000033
   -5    0    3    1    1   -0.000737   -0.000012
   -5    0    3    2    1    0.000057    0.000020
   -5    0    3    3    1   -0.000664   -0.000010
   -5    0    3    4    1    0.000367   -0.000032
   -5    0    3    5    1   -0.000843   -0.000014
   -5    0    3    6    1    0.000030    0.000018
   -5    0    3    7    1    0.000511   -0.000038
   -5    0    3    8    1   -0.000253    0.000000
   -5    0    3    1    2    0.000135    0.000002
   -5    0    3    2    2    0.000389    0.000009
   -5    0    3    3    2    0.000632   -0.000009
   -5    0    3    4    2    0.000434   -0.000014
   -5    0    3    5    2   -0.000134   -0.000008
   -5    0    3    6    2    0.001017    0.000006
   -5    0    3    7    2    0.001146    0.000007
   -5    0    3    8    2   -0.000800    0.000003
   -5    0    3    1    3   -0.000399   -0.000022
   -5    0    3    2    3    0.000562    0.000005
   -5    0    3    3    3    0.000153    0.000024
   -5    0    3    4    3    0.000906   -0.000043
   -5    0    3    5    3   -0.000845   -0.000015
   -5    0    3    6    3    0.001132    0.000052
   -5    0    3    7    3    0.002226   -0.000006
   -5    0    3    8    3   -0.001283   -0.000048
   -5    0    3    1    4   -0.000447   -0.000013
   -5    0    3    2    4    0.000129    0.000005
   -5    0    3    3    4   -0.000249   -0.000017
   -5    0    3    4    4   -0.000407   -0.000013
   -5    0    3    5    4    0.000355    0.000002
   -5    0    3    6    4   -0.000745    0.000006
   -5    0    3    7    4   -0.001206   -0.000053
   -5    0    3    8    4    0.001414   -0.000003
   -5    0    3    1    5   -0.000658   -0.000001
   -5    0    3    2    5    0.000096   -0.000013
   -5    0    3    3    5   -0.000036   -0.000008
   -5    0    3    4    5    0.000297    0.000007
   -5    0    3    5    5   -0.000847    0.000021
   -5    0    3    6    5   -0.000201   -0.000026
   -5    0    3    7    5    0.000310    0.000028
   -5    0    3    8    5    0.000483   -0.000001
   -5    0    3    1    6   -0.000116    0.000011
   -5    0    3    2    6    0.000640   -0.000006
   -5    0    3    3    6    0.000016    0.000035
   -5    0    3    4    6    0.000287    0.000016
   -5    0    3    5    6   -0.000102   -0.000043
   -5    0    3    6    6    0.000376    0.000012
   -5    0    3    7    6    0.000528   -0.000006
   -5    0    3    8    6    0.000105    0.000029
   -5    0    3    1    7   -0.000058   -0.000014
   -5    0    3    2    7    0.000100    0.000025
   -5    0    3    3    7    0.000452    0.000001
   -5    0    3    4    7    0.000057   -0.000050
   -5    0    3    5    7    0.000540    0.000002
   -5    0    3    6    7    0.000619    0.000012
   -5    0    3    7    7    0.000291   -0.000007
   -5    0    3    8    7   -0.000204   -0.000029
   -5    0    3    1    8   -0.000281   -0.000008
   -5    0    3    2    8    0.000303    0.000007
   -5    0    3    3    8    0.000026   -0.000037
   -5    0    3    4    8    0.000532   -0.000020
   -5    0    3    5    8   -0.000471    0.000017
   -5    0    3    6    8    0.000409    0.000012
   -5    0    3    7    8    0.000887   -0.000039
   -5    0    3    8    8   -0.000414   -0.000020
   -5    1    1    1    1    0.000847    0.000000
   -5    1    1    2    1   -0.000396   -0.000003
   -5    1    1    3    1    0.000002    0.000015
   -5    1    1    4    1   -0.000454    0.000013
   -5    1    1    5    1    0.001138   -0.000041
   -5    1    1    6    1   -0.000974    0.000029
   -5    1    1    7    1    0.000893   -0.000034
   -5    1    1    8    1   -0.000991    0.000029
   -5    1    1    1    2   -0.000387    0.000003
   -5    1    1    2    2   -0.000624   -0.000018
   -5    1    1    3    2    0.000002    0.000027
   -5    1    1    4    2   -0.001251    0.000021
   -5    1    1    5    2    0.000916   -0.000031
   -5    1    1    6    2   -0.000650    0.000023
   -5    1    1    7    2    0.000451   -0.000007
   -5    1    1    8    2   -0.001268    0.000016
   -5    1    1    1    3   -0.000012   -0.000015
   -5    1    1    2    3   -0.000010    0.000013
   -5    1    1    3    3    0.000812    0.000023
   -5    1    1    4    3   -0.000012   -0.000024
   -5    1    1    5    3   -0.000631   -0.000030
   -5    1    1    6    3    0.000474    0.000019
   -5    1    1    7    3   -0.001823    0.000035
   -5    1    1    8    3    0.000392   -0.000005
   -5    1    1    1    4   -0.000434   -0.000008
   -5    1    1    2    4   -0.001242    0.000006
   -5    1    1    3    4   -0.000002   -0.000012
   -5    1    1    4    4   -0.000687   -0.000009
   -5    1    1    5    4    0.000927   -0.000013
   -5    1    1    6    4   -0.001272    0.000006
   -5    1    1    7    4    0.000458   -0.000047
   -5    1    1    8    4   -0.000672    0.000021
   -5    1    1    1    5    0.000637    0.000034
   -5    1    1    2    5    0.000437    0.000006
   -5    1    1    3    5   -0.000173    0.000014
   -5    1    1    4    5    0.000472    0.000024
   -5    1    1    5    5    0.000868    0.000004
   -5    1    1    6    5    0.000363   -0.000010
   -5    1    1    7    5    0.000038    0.000033
   -5    1    1    8    5    0.000420    0.000005
   -5    1    1    1    6   -0.000479   -0.000019
   -5    1    1    2    6   -0.001472   -0.000014
   -5    1    1    3    6    0.000180    0.000014
   -5    1    1    4    6   -0.000433   -0.000008
   -5    1    1    5    6    0.000381    0.000009
   -5    1    1    6    6   -0.000630   -0.000018
   -5    1    1    7    6   -0.000016   -0.000011
   -5    1    1    8    6   -0.001224    0.000004
   -5    1    1    1    7    0.000195    0.000038
   -5    1    1    2    7    0.000244    0.000052
   -5    1    1    3    7    0.000353    0.000017
   -5    1    1    4    7    0.000185   -0.000006
   -5    1    1    5    7    0.000022   -0.000058
   -5    1    1    6    7    0.000042    0.000041
   -5    1    1    7    7    0.000801    0.000020
   -5    1    1    8    7   -0.000030    0.000020
   -5    1    1    1    8   -0.000497   -0.000038
   -5    1    1    2    8   -0.000440   -0.000018
   -5    1    1    3    8    0.000220   -0.000024
   -5    1    1    4    8   -0.001508   -0.000014
   -5    1    1    5    8    0.000431   -0.000009
   -5    1    1    6    8   -0.001234    0.000023
   -5    1    1    7    8    0.000004   -0.000037
   -5    1    1    8    8   -0.000688   -0.000009
   -5    1    2    1    1   -0.000367    0.000015
   -5    1    2    2    1    0.000302    0.000028
   -5    1    2    3    1    0.000573   -0.000005
   -5    1    2    4    1    0.000096   -0.000004
   -5    1    2    5    1    0.000332   -0.000027
   -5    1    2    6    1   -0.000480    0.000013
   -5    1    2    7    1    0.000704   -0.000018
   -5    1    2    8    1    0.000432    0.000026
   -5    1    2    1    2    0.000397    0.000022
   -5    1    2    2    2    0.000312    0.000008
   -5    1    2    3    2   -0.000230   -0.000005
   -5    1    2    4    2    0.000309    0.000019
   -5    1    2    5    2    0.000482   -0.000032
   -5    1    2    6    2   -0.000431    0.000023
   -5    1    2    7    2    0.000018   -0.000014
   -5    1    2    8    2    0.000334    0.000025
   -5    1    2    1    3    0.000483   -0.000021
   -5    1    2    2    3   -0.000206    0.000021
   -5    1    2    3    3    0.000147   -0.000006
   -5    1    2    4    3   -0.000564   -0.000046
   -5    1    2    5    3   -0.000448   -0.000007
   -5    1    2    6    3    0.000032    0.000013
   -5    1    2    7    3   -0.002455    0.000005
   -5    1    2    8    3    0.001653   -0.000022
   -5    1    2    1    4   -0.000185   -0.000007
   -5    1    2    2    4   -0.000205    0.000017
   -5    1    2    3    4    0.000534   -0.000005
   -5    1    2    4    4    0.000938   -0.000017
   -5    1    2    5    4   -0.000612    0.000002
   -5    1    2    6    4    0.000332   -0.000005
   -5    1    2    7    4    0.001534   -0.000022
   -5    1    2    8    4   -0.000939    0.000003
   -5    1    2    1    5   -0.001284    0.000010
   -5    1    2    2    5   -0.000833   -0.000005
   -5    1    2    3    5   -0.000042    0.000016
   -5    1    2    4    5   -0.000431    0.000013
   -5    1    2    5    5   -0.000237    0.000002
   -5    1    2    6    5   -0.000381   -0.000012
   -5    1    2    7    5   -0.000519    0.000028
   -5    1    2    8    5    0.000136    0.000005
   -5    1    2    1    6    0.000828    0.000003
   -5    1    2    2    6   -0.000475   -0.000020
   -5    1    2    3    6   -0.000084    0.000035
   -5    1    2    4    6    0.000697    0.000025
   -5    1    2    5    6   -0.000268   -0.000024
   -5    1    2    6    6    0.000316    0.000008
   -5    1    2    7    6   -0.000272    0.000003
   -5    1    2    8    6   -0.000195    0.000019
   -5    1    2    1    7   -0.000127    0.000018
   -5    1    2    2    7   -0.000109    0.000058
   -5    1    2    3    7    0.000627   -0.000026
   -5    1    2    4    7   -0.000088   -0.000031
   -5    1    2    5    7   -0.000619   -0.000015
   -5    1    2    6    7   -0.000269    0.000006
   -5    1    2    7    7    0.000014    0.000007
   -5    1    2    8    7    0.000570    0.000002
   -5    1    2    1    8    0.000455   -0.000018
   -5    1    2    2    8    0.000715    0.000016
   -5    1    2    3    8   -0.000024   -0.000048
   -5    1    2    4    8    0.000248   -0.000034
   -5    1    2    5    8   -0.000051    0.000023
   -5    1    2    6    8    0.000339    0.000002
   -5    1    2    7    8   -0.000516   -0.000041
   -5    1    2    8    8    0.000934   -0.000017
   -5    1    3    1    1    0.000202    0.000005
   -5    1    3    2    1   -0.000077    0.000020
   -5    1    3    3    1   -0.000698   -0.000016
   -5    1    3    4    1    0.000789   -0.000008
   -5    1    3    5    1   -0.000458   -0.000009
   -5    1    3    6    1   -0.000009    0.000007
   -5    1    3    7    1    0.000161   -0.000013
   -5    1    3    8    1   -0.000126    0.000004
   -5    1    3    1    2   -0.000070    0.000006
   -5    1    3    2    2    0.000894    0.000012
   -5    1    3    3    2    0.000076   -0.000049
   -5    1    3    4    2    0.000075   -0.000003
   -5    1    3    5    2   -0.000105   -0.000000
   -5    1    3    6    2    0.001100    0.000003
   -5    1    3    7    2    0.001175   -0.000031
   -5    1    3    8    2   -0.000888    0.000017
   -5    1    3    1    3   -0.000676   -0.000025
   -5    1    3    2    3    0.000030    0.000026
   -5    1    3    3    3    0.000086    0.000019
   -5    1    3    4    3    0.000956   -0.000059
   -5    1    3    5    3   -0.000430   -0.000023
   -5    1    3    6    3    0.001152    0.000006
   -5    1    3    7    3    0.001868   -0.000006
   -5    1    3    8    3   -0.001272    0.000020
   -5    1    3    1    4    0.000810    0.000004
   -5    1    3    2    4    0.000084    0.000008
   -5    1    3    3    4    0.001005    0.000036
   -5    1    3    4    4   -0.000847   -0.000006
   -5    1    3    5    4    0.000245   -0.000011
   -5    1    3    6    4   -0.000831    0.000017
   -5    1    3    7    4   -0.001239    0.000011
   -5    1    3    8    4    0.002162   -0.000019
   -5    1    3    1    5    0.000453   -0.000008
   -5    1    3    2    5   -0.000507   -0.000011
   -5    1    3    3    5    0.000402    0.000008
   -5    1    3    4    5    0.000472   -0.000003
   -5    1    3    5    5    0.000062    0.000019
   -5    1    3    6    5    0.000054   -0.000016
   -5    1    3    7    5    0.000672    0.000038
   -5    1    3    8    5   -0.000919   -0.000020
   -5    1    3    1    6    0.000425    0.000024
   -5    1    3    2    6    0.000799   -0.000010
   -5    1    3    3    6    0.000596    0.000017
   -5    1    3    4    6   -0.000342    0.000031
   -5    1    3    5    6    0.000078   -0.000031
   -5    1    3    6    6    0.000891    0.000009
   -5    1    3    7    6    0.000016    0.000009
   -5    1    3    8    6    0.000062    0.000027
   -5    1    3    1    7   -0.000439   -0.000006
   -5    1    3    2    7    0.000607    0.000037
   -5    1    3    3    7    0.001026   -0.000002
   -5    1    3    4    7   -0.000709   -0.000047
   -5    1    3    5    7    0.000666    0.000004
   -5    1    3    6    7    0.000078   -0.000018
   -5    1    3    7    7    0.000254    0.000015
   -5    1    3    8    7    0.000931    0.000015
   -5    1    3    1    8   -0.000369   -0.000015
   -5    1    3    2    8   -0.000338    0.000004
   -5    1    3    3    8   -0.000771   -0.000029
   -5    1    3    4    8    0.000397   -0.000017
   -5    1    3    5    8   -0.000914    0.000012
   -5    1    3    6    8    0.000065    0.000007
   -5    1    3    7    8    0.000875   -0.000056
   -5    1    3    8    8   -0.000862   -0.000011
   -5    2    0    1    1    0.000789    0.000006
   -5    2    0    2    1   -0.000789   -0.000015
   -5    2    0    3    1   -0.000037    0.000009
   -5    2    0    4    1    0.000480    0.000021
   -5    2    0    5    1    0.000969   -0.000020
   -5    2    0    6    1   -0.000321    0.000001
   -5    2    0    7    1    0.000155   -0.000020
   -5    2    0    8    1   -0.000409    0.000024
   -5    2    0    1    2   -0.000157   -0.000020
   -5    2    0    2    2   -0.000276   -0.000034
   -5    2    0    3    2    0.000011    0.000014
   -5    2    0    4    2    0.000580    0.000009
   -5    2    0    5    2    0.000184    0.000002
   -5    2    0    6    2   -0.000574   -0.000007
   -5    2    0    7    2    0.001217    0.000003
   -5    2    0    8    2   -0.000459   -0.000002
   -5    2    0    1    3   -0.000052    0.000015
   -5    2    0    2    3    0.000049   -0.000001
   -5    2    0    3    3   -0.000013    0.000015
   -5    2    0    4    3   -0.000024    0.000016
   -5    2    0    5    3   -0.000023   -0.000021
   -5    2    0    6    3    0.001234   -0.000000
   -5    2    0    7    3   -0.000103    0.000024
   -5    2    0    8    3   -0.000874    0.000014
   -5    2    0    1    4    0.000137    0.000023
   -5    2    0    2    4   -0.000777    0.000014
   -5    2    0    3    4    0.000001   -0.000002
   -5    2    0    4    4   -0.001071    0.000012
   -5    2    0    5    4    0.000488   -0.000017
   -5    2    0    6    4   -0.000440    0.000002
   -5    2    0    7    4   -0.000778   -0.000029
   -5    2    0    8    4   -0.000513    0.000030
   -5    2    0    1    5    0.001724    0.000004
   -5    2    0    2    5    0.000424    0.000023
   -5    2    0    3    5   -0.000593   -0.000004
   -5    2    0    4    5    0.000952   -0.000013
   -5    2    0    5    5    0.000777    0.000002
   -5    2    0    6    5    0.000153    0.000024
   -5    2    0    7    5    0.000125    0.000005
   -5    2    0    8    5   -0.000140   -0.000025
   -5    2    0    1    6   -0.000426    0.000002
   -5    2    0    2    6    0.000046   -0.000008
   -5    2    0    3    6    0.000020    0.000006
   -5    2    0    4    6   -0.001044    0.000003
   -5    2    0    5    6    0.000766    0.000013
   -5    2    0    6    6   -0.000288   -0.000038
   -5    2    0    7    6    0.000114    0.000021
   -5    2    0    8    6   -0.000764    0.000014
   -5    2    0    1    7    0.000764    0.000006
   -5    2    0    2    7    0.000076    0.000019
   -5    2    0    3    7   -0.000265    0.000016
   -5    2    0    4    7    0.000120    0.000001
   -5    2    0    5    7    0.000138   -0.000029
   -5    2    0    6    7    0.000070    0.000027
   -5    2    0    7    7    0.000007    0.000013
   -5    2    0    8    7   -0.000089    0.000002
   -5    2    0    1    8   -0.000986   -0.000003
   -5    2    0    2    8   -0.001069   -0.000024
   -5    2    0    3    8    0.000081   -0.000001
   -5    2    0    4    8    0.000038    0.000019
   -5    2    0    5    8   -0.000475   -0.000012
   -5    2    0    6    8    0.000571   -0.000001
   -5    2    0    7    8   -0.000068   -0.000024
   -5    2    0    8    8   -0.001067    0.000016
   -5    2    1    1    1   -0.000366    0.000014
   -5    2    1    2    1    0.000141    0.000000
   -5    2    1    3    1    0.000554    0.000012
   -5    2    1    4    1    0.000270    0.000022
   -5    2    1    5    1    0.000318   -0.000045
   -5    2    1    6    1    0.000456    0.000034
   -5    2    1    7    1    0.000705   -0.000030
   -5    2    1    8    1   -0.000487    0.000030
   -5    2    1    1    2   -0.000152    0.000004
   -5    2    1    2    2    0.000986   -0.000017
   -5    2    1    3    2    0.000513   -0.000006
   -5    2    1    4    2   -0.000216    0.000027
   -5    2    1    5    2   -0.000619   -0.000020
   -5    2    1    6    2   -0.000935    0.000019
   -5    2    1    7    2    0.001532   -0.000017
   -5    2    1    8    2    0.000325    0.000010
   -5    2    1    1    3    0.000455   -0.000015
   -5    2    1    2    3   -0.000522   -0.000003
   -5    2    1    3    3    0.000141   -0.000007
   -5    2    1    4    3   -0.000266   -0.000014
   -5    2    1    5    3   -0.000421   -0.000012
   -5    2    1    6    3    0.001639    0.000012
   -5    2    1    7    3   -0.002447   -0.000013
   -5    2    1    8    3    0.000009    0.000005
   -5    2    1    1    4    0.000361    0.000011
   -5    2    1    2    4    0.000321    0.000012
   -5    2    1    3    4   -0.000240    0.000022
   -5    2    1    4    4    0.000278    0.000006
   -5    2    1    5    4    0.000469   -0.000034
   -5    2    1    6    4    0.000353    0.000017
   -5    2    1    7    4    0.000009   -0.000016
   -5    2    1    8    4   -0.000417    0.000025
   -5    2    1    1    5   -0.001273    0.000032
   -5    2    1    2    5   -0.000454    0.000021
   -5    2    1    3    5   -0.000018    0.000009
   -5    2    1    4    5   -0.000779    0.000008
   -5    2    1    5    5   -0.000247    0.000000
   -5    2    1    6    5    0.000107   -0.000005
   -5    2    1    7    5   -0.000498    0.000030
   -5    2    1    8    5   -0.000338    0.000000
   -5    2    1    1    6    0.000466   -0.000020
   -5    2    1    2    6    0.000262   -0.000040
   -5    2    1    3    6   -0.000058    0.000025
   -5    2    1    4    6    0.000726    0.000010
   -5    2    1    5    6   -0.000080    0.000009
   -5    2    1    6    6    0.000979   -0.000014
   -5    2    1    7    6   -0.000537    0.000012
   -5    2    1    8    6    0.000344   -0.000004
   -5    2    1    1    7   -0.000154    0.000028
   -5    2    1    2    7   -0.000035    0.000032
   -5    2    1    3    7    0.000606   -0.000004
   -5    2    1    4    7   -0.000173    0.000008
   -5    2    1    5    7   -0.000601   -0.000042
   -5    2    1    6    7    0.000535    0.000025
   -5    2    1    7    7    0.000018    0.000007
   -5    2    1    8    7   -0.000260    0.000024
   -5    2    1    1    8    0.000788   -0.000018
   -5    2    1    2    8    0.000707    0.000002
   -5    2    1    3    8   -0.000066   -0.000028
   -5    2    1    4    8   -0.000519   -0.000013
   -5    2    1    5    8   -0.000243   -0.000005
   -5    2    1    6    8   -0.000204    0.000021
   -5    2    1    7    8   -0.000271   -0.000055
   -5    2    1    8    8    0.000282    0.000001
   -5    2    2    1    1    0.000449    0.000030
   -5    2    2    2    1    0.000359    0.000024
   -5    2    2    3    1    0.000215   -0.000007
   -5    2    2    4    1    0.000341    0.000009
   -5    2    2    5    1   -0.000732   -0.000017
   -5    2    2    6    1    0.000650    0.000005
   -5    2    2    7    1   -0.000279    0.000003
   -5    2    2    8    1    0.000626    0.000018
   -5    2    2    1    2   -0.000066    0.000021
   -5    2    2    2    2    0.000351    0.000002
   -5    2    2    3    2   -0.000502   -0.000032
   -5    2    2    4    2   -0.000090    0.000025
   -5    2    2    5    2   -0.000636   -0.000018
   -5    2    2    6    2   -0.000720    0.000011
   -5    2    2    7    2    0.000066   -0.000030
   -5    2    2    8    2    0.000836    0.000024
   -5    2    2    1    3    0.001207   -0.000024
   -5    2    2    2    3   -0.000187    0.000012
   -5    2    2    3    3   -0.000085   -0.000000
   -5    2    2    4    3   -0.000188   -0.000046
   -5    2    2    5    3    0.000374    0.000006
   -5    2    2    6    3    0.000141   -0.000017
   -5    2    2    7    3   -0.001595    0.000001
   -5    2    2    8    3    0.000150    0.000021
   -5    2    2    1    4   -0.000092    0.000015
   -5    2    2    2    4   -0.000096    0.000024
   -5    2    2    3    4   -0.000500    0.000033
   -5    2    2    4    4    0.000330   -0.000009
   -5    2    2    5    4   -0.000646   -0.000013
   -5    2    2    6    4    0.000867    0.000003
   -5    2    2    7    4    0.000032    0.000035
   -5    2    2    8    4   -0.000699    0.000000
   -5    2    2    1    5    0.000707    0.000007
   -5    2    2    2    5   -0.000007   -0.000001
   -5    2    2    3    5   -0.000555    0.000018
   -5    2    2    4    5    0.000024    0.000007
   -5    2    2    5    5    0.000595   -0.000007
   -5    2    2    6    5    0.000129    0.000002
   -5    2    2    7    5   -0.001143    0.000022
   -5    2    2    8    5    0.000153   -0.000000
   -5    2    2    1    6   -0.000008    0.000002
   -5    2    2    2    6   -0.000196   -0.000029
   -5    2    2    3    6   -0.000035    0.000007
   -5    2    2    4    6    0.000044    0.000027
   -5    2    2    5    6   -0.000334   -0.000009
   -5    2    2    6    6    0.000353    0.000006
   -5    2    2    7    6   -0.000230    0.000001
   -5    2    2    8    6   -0.000075    0.000005
   -5    2    2    1    7    0.000759    0.000013
   -5    2    2    2    7   -0.000039    0.000033
   -5    2    2    3    7   -0.001156   -0.000006
   -5    2    2    4    7   -0.000014   -0.000021
   -5    2    2    5    7   -0.000170   -0.000001
   -5    2    2    6    7   -0.000482   -0.000022
   -5    2    2    7    7   -0.000251    0.000034
   -5    2    2    8    7   -0.000465    0.000025
   -5    2    2    1    8   -0.000029   -0.000009
   -5    2    2    2    8    0.000048    0.000022
   -5    2    2    3    8    0.000009   -0.000027
   -5    2    2    4    8   -0.000224   -0.000027
   -5    2    2    5    8   -0.000330    0.000019
   -5    2    2    6    8   -0.000063   -0.000004
   -5    2    2    7    8   -0.000211   -0.000034
   -5    2    2    8    8    0.000339   -0.000008
   -5    2    3    1    1    0.000240    0.000006
   -5    2    3    2    1   -0.000344    0.000008
   -5    2    3    3    1   -0.000216   -0.000016
   -5    2    3    4    1   -0.000271    0.000001
   -5    2    3    5    1    0.000983    0.000004
   -5    2    3    6    1   -0.000729    0.000007
   -5    2    3    7    1    0.000239   -0.000003
   -5    2    3    8    1   -0.000647   -0.000009
   -5    2    3    1    2   -0.000649    0.000003
   -5    2    3    2    2    0.000479    0.000008
   -5    2    3    3    2    0.000073   -0.000036
   -5    2    3    4    2   -0.000340   -0.000002
   -5    2    3    5    2    0.000612    0.000010
   -5    2    3    6    2   -0.000668    0.000008
   -5    2    3    7    2    0.001258   -0.000024
   -5    2    3    8    2   -0.000373   -0.000010
   -5    2    3    1    3   -0.000587   -0.000021
   -5    2    3    2    3    0.000295   -0.000021
   -5    2    3    3    3   -0.000253   -0.000022
   -5    2    3    4    3   -0.000663   -0.000001
   -5    2    3    5    3   -0.000124    0.000014
   -5    2    3    6    3    0.001170   -0.000032
   -5    2    3    7    3   -0.000435   -0.000016
   -5    2    3    8    3   -0.001132    0.000025
   -5    2    3    1    4    0.000681    0.000006
   -5    2    3    2    4   -0.000258    0.000012
   -5    2    3    3    4    0.000324    0.000024
   -5    2    3    4    4   -0.001056   -0.000009
   -5    2    3    5    4    0.000735   -0.000014
   -5    2    3    6    4   -0.000311    0.000010
   -5    2    3    7    4   -0.001126    0.000018
   -5    2    3    8    4    0.000154    0.000006
   -5    2    3    1    5   -0.000147   -0.000015
   -5    2    3    2    5   -0.000180   -0.000001
   -5    2    3    3    5    0.000183    0.000019
   -5    2    3    4    5    0.000392   -0.000021
   -5    2    3    5    5    0.000142   -0.000002
   -5    2    3    6    5    0.000639    0.000002
   -5    2    3    7    5    0.000641    0.000019
   -5    2    3    8    5   -0.000721   -0.000000
   -5    2    3    1    6    0.000126    0.000024
   -5    2    3    2    6    0.000828   -0.000014
   -5    2    3    3    6    0.000380   -0.000031
   -5    2    3    4    6   -0.000602    0.000037
   -5    2    3    5    6    0.000319   -0.000003
   -5    2    3    6    6    0.000475    0.000005
   -5    2    3    7    6    0.000326   -0.000012
   -5    2    3    8    6   -0.000288    0.000008
   -5    2    3    1    7   -0.000256   -0.000023
   -5    2    3    2    7    0.000397   -0.000022
   -5    2    3    3    7    0.000876   -0.000022
   -5    2    3    4    7   -0.000932   -0.000008
   -5    2    3    5    7    0.000250    0.000022
   -5    2    3    6    7    0.000113   -0.000023
   -5    2    3    7    7   -0.000155   -0.000001
   -5    2    3    8    7    0.000272    0.000009
   -5    2    3    1    8   -0.000275   -0.000001
   -5    2    3    2    8   -0.000614    0.000014
   -5    2    3    3    8   -0.000990    0.000010
   -5    2    3    4    8   -0.000273   -0.000008
   -5    2    3    5    8    0.000336    0.000006
   -5    2    3    6    8   -0.000330   -0.000005
   -5    2    3    7    8   -0.000645   -0.000004
   -5    2    3    8    8   -0.001050   -0.000016
   -5    3   -1    1    1    0.000510    0.000014
   -5    3   -1    2    1   -0.000342   -0.000002
   -5    3   -1    3    1   -0.000022   -0.000012
   -5    3   -1    4    1   -0.000106    0.000021
   -5    3   -1    5    1    0.000977   -0.000000
   -5    3   -1    6    1   -0.000751   -0.000020
   -5    3   -1    7    1    0.000498    0.000012
   -5    3   -1    8    1   -0.000586    0.000012
   -5    3   -1    1    2    0.000628   -0.000007
   -5    3   -1    2    2   -0.000562   -0.000027
   -5    3   -1    3    2   -0.000101    0.000010
   -5    3   -1    4    2   -0.000640    0.000005
   -5    3   -1    5    2    0.000833    0.000014
   -5    3   -1    6    2   -0.000237   -0.000026
   -5    3   -1    7    2   -0.000943    0.000024
   -5    3   -1    8    2   -0.000111    0.000004
   -5    3   -1    1    3   -0.000011   -0.000004
   -5    3   -1    2    3    0.000005    0.000002
   -5    3   -1    3    3    0.000456   -0.000001
   -5    3   -1    4    3    0.000004    0.000006
   -5    3   -1    5    3   -0.000384    0.000011
   -5    3   -1    6    3   -0.000988    0.000002
   -5    3   -1    7    3   -0.000054    0.000010
   -5    3   -1    8    3    0.001290   -0.000016
   -5    3   -1    1    4   -0.000142    0.000027
   -5    3   -1    2    4    0.000113    0.000034
   -5    3   -1    3    4    0.000026   -0.000020
   -5    3   -1    4    4    0.000654    0.000008
   -5    3   -1    5    4    0.000443   -0.000012
   -5    3   -1    6    4   -0.000163    0.000008
   -5    3   -1    7    4    0.001391   -0.000011
   -5    3   -1    8    4   -0.000656    0.000007
   -5    3   -1    1    5    0.000530   -0.000027
   -5    3   -1    2    5    0.000024   -0.000002
   -5    3   -1    3    5    0.000499    0.000007
   -5    3   -1    4    5   -0.000325   -0.000012
   -5    3   -1    5    5    0.000501   -0.000003
   -5    3   -1    6    5   -0.000617    0.000012
   -5    3   -1    7    5    0.000002   -0.000007
   -5    3   -1    8    5    0.000149   -0.000016
   -5    3   -1    1    6   -0.000046   -0.000006
   -5    3   -1    2    6   -0.001069   -0.000001
   -5    3   -1    3    6    0.000331    0.000004
   -5    3   -1    4    6    0.000242   -0.000006
   -5    3   -1    5    6    0.000338    0.000023
   -5    3   -1    6    6   -0.000558   -0.000028
   -5    3   -1    7    6    0.000012    0.000011
   -5    3   -1    8    6    0.000113    0.000008
   -5    3   -1    1    7   -0.000471   -0.000012
   -5    3   -1    2    7    0.000339    0.000009
   -5    3   -1    3    7    0.000205    0.000017
   -5    3   -1    4    7    0.000128    0.000003
   -5    3   -1    5    7    0.000047   -0.000006
   -5    3   -1    6    7   -0.000155    0.000007
   -5    3   -1    7    7    0.000468    0.000021
   -5    3   -1    8    7   -0.000001   -0.000004
   -5    3   -1    1    8    0.000327    0.000026
   -5    3   -1    2    8    0.000239    0.000008
   -5    3   -1    3    8    0.000176   -0.000004
   -5    3   -1    4    8    0.000374    0.000013
   -5    3   -1    5    8    0.000108   -0.000010
   -5    3   -1    6    8   -0.000656    0.000002
   -5    3   -1    7    8    0.000045   -0.000002
   -5    3   -1    8    8    0.000657    0.000006
   -5    3    0    1    1   -0.000756    0.000009
   -5    3    0    2    1    0.000364   -0.000021
   -5    3    0    3    1   -0.000688   -0.000010
   -5    3    0    4    1    0.000035    0.000034
   -5    3    0    5    1   -0.000850   -0.000014
   -5    3    0    6    1   -0.000230    0.000001
   -5    3    0    7    1    0.000498   -0.000018
   -5    3    0    8    1    0.000023    0.000012
   -5    3    0    1    2   -0.000442   -0.000020
   -5    3    0    2    2   -0.000382   -0.000034
   -5    3    0    3    2   -0.000277   -0.000011
   -5    3    0    4    2    0.000128    0.000010
   -5    3    0    5    2    0.000342    0.000014
   -5    3    0    6    2    0.001462   -0.000003
   -5    3    0    7    2   -0.001233   -0.000009
   -5    3    0    8    2   -0.000767   -0.000014
   -5    3    0    1    3   -0.000424    0.000006
   -5    3    0    2    3    0.000946   -0.000012
   -5    3    0    3    3    0.000174   -0.000004
   -5    3    0    4    3    0.000498    0.000015
   -5    3    0    5    3   -0.000806   -0.000008
   -5    3    0    6    3   -0.001292   -0.000005
   -5    3    0    7    3    0.002271   -0.000016
   -5    3    0    8    3    0.001090    0.000019
   -5    3    0    1    4    0.000119    0.000026
   -5    3    0    2    4    0.000401    0.000011
   -5    3    0    3    4    0.000625    0.000010
   -5    3    0    4    4    0.000386    0.000017
   -5    3    0    5    4   -0.000141   -0.000022
   -5    3    0    6    4   -0.000812    0.000001
   -5    3    0    7    4    0.001144    0.000000
   -5    3    0    8    4    0.001038    0.000019
   -5    3    0    1    5   -0.000603   -0.000004
   -5    3    0    2    5    0.000308    0.000021
   -5    3    0    3    5   -0.000034    0.000000
   -5    3    0    4    5    0.000148   -0.000012
   -5    3    0    5    5   -0.000849    0.000007
   -5    3    0    6    5    0.000468    0.000021
   -5    3    0    7    5    0.000319    0.000008
   -5    3    0    8    5   -0.000192   -0.000029
   -5    3    0    1    6   -0.000299   -0.000011
   -5    3    0    2    6    0.000524   -0.000038
   -5    3    0    3    6   -0.000005    0.000017
   -5    3    0    4    6    0.000303    0.000009
   -5    3    0    5    6   -0.000475    0.000016
   -5    3    0    6    6   -0.000391   -0.000036
   -5    3    0    7    6    0.000865    0.000034
   -5    3    0    8    6    0.000395    0.000005
   -5    3    0    1    7   -0.000099   -0.000003
   -5    3    0    2    7    0.000084   -0.000000
   -5    3    0    3    7    0.000437   -0.000004
   -5    3    0    4    7    0.000031    0.000000
   -5    3    0    5    7    0.000586   -0.000002
   -5    3    0    6    7   -0.000234    0.000007
   -5    3    0    7    7    0.000297   -0.000006
   -5    3    0    8    7    0.000605   -0.000006
   -5    3    0    1    8   -0.000151    0.000010
   -5    3    0    2    8    0.000287   -0.000001
   -5    3    0    3    8    0.000044   -0.000012
   -5    3    0    4    8    0.000603    0.000011
   -5    3    0    5    8   -0.000108   -0.000028
   -5    3    0    6    8    0.000117    0.000011
   -5    3    0    7    8    0.000530   -0.000041
   -5    3    0    8    8    0.000374    0.000026
   -4   -4    4    1    1    0.002202    0.000000
   -4   -4    4    2    1   -0.003542    0.001738
   -4   -4    4    3    1   -0.000284    0.000005
   -4   -4    4    4    1   -0.003542   -0.000549
   -4   -4    4    5    1    0.002676   -0.000108
   -4   -4    4    6    1    0.000217    0.000175
   -4   -4    4    7    1   -0.001363   -0.000031
   -4   -4    4    8    1    0.000205   -0.000088
   -4   -4    4    1    2   -0.003542   -0.001738
   -4   -4    4    2    2    0.000661    0.000000
   -4   -4    4    3    2    0.000325   -0.000042
   -4   -4    4    4    2    0.003234    0.001933
   -4   -4    4    5    2   -0.000393   -0.000035
   -4   -4    4    6    2    0.000593   -0.000647
   -4   -4    4    7    2    0.001866   -0.001484
   -4   -4    4    8    2    0.001670   -0.000610
   -4   -4    4    1    3   -0.000284   -0.000005
   -4   -4    4    2    3    0.000325    0.000042
   -4   -4    4    3    3   -0.001997    0.000000
   -4   -4    4    4    3    0.000472    0.000047
   -4   -4    4    5    3    0.001587   -0.000100
   -4   -4    4    6    3    0.001864   -0.001269
   -4   -4    4    7    3    0.000246   -0.000119
   -4   -4    4    8    3    0.001811    0.000074
   -4   -4    4    1    4   -0.003542    0.000549
   -4   -4    4    2    4    0.003234   -0.001933
   -4   -4    4    3    4    0.000472   -0.000047
   -4   -4    4    4    4    0.000533    0.000000
   -4   -4    4    5    4   -0.000300    0.000082
   -4   -4    4    6    4    0.001679   -0.000363
   -4   -4    4    7    4    0.001860    0.000046
   -4   -4    4    8    4    0.000953    0.000051
   -4   -4    4    1    5    0.002676    0.000108
   -4   -4    4    2    5   -0.000393    0.000035
   -4   -4    4    3    5    0.001587    0.000100
   -4   -4    4    4    5   -0.000300   -0.000082
   -4   -4    4    5    5    0.002096    0.000000
   -4   -4    4    6    5    0.003504    0.001536
   -4   -4    4    7    5    0.000729    0.000327
   -4   -4    4    8    5    0.003489   -0.000272
   -4   -4    4    1    6    0.000217   -0.000175
   -4   -4    4    2    6    0.000593    0.000647
   -4   -4    4    3    6    0.001864    0.001269
   -4   -4    4    4    6    0.001679    0.000363
   -4   -4    4    5    6    0.003504   -0.001536
   -4   -4    4    6    6    0.000661    0.000000
   -4   -4    4    7    6    0.000576   -0.000167
   -4   -4    4    8    6    0.003239   -0.001767
   -4   -4    4    1    7   -0.001363    0.000031
   -4   -4    4    2    7    0.001866    0.001484
   -4   -4    4    3    7    0.000246    0.000119
   -4   -4    4    4    7    0.001860   -0.000046
   -4   -4    4    5    7    0.000729   -0.000327
   -4   -4    4    6    7    0.000576    0.000167
   -4   -4    4    7    7   -0.001878    0.000000
   -4   -4    4    8    7    0.000712   -0.000281
   -4   -4    4    1    8    0.000205    0.000088
   -4   -4    4    2    8    0.001670    0.000610
   -4   -4    4    3    8    0.001811   -0.000074
   -4   -4    4    4    8    0.000953   -0.000051
   -4   -4    4    5    8    0.003489    0.000272
   -4   -4    4    6    8    0.003239    0.001767
   -4   -4    4    7    8    0.000712    0.000281
   -4   -4    4    8    8    0.000534    0.000000
   -4   -3    3    1    1   -0.001482    0.000163
   -4   -3    3    2    1    0.001123   -0.000373
   -4   -3    3    3    1   -0.000018    0.000036
   -4   -3    3    4    1   -0.000794   -0.000017
   -4   -3    3    5    1    0.000309   -0.000043
   -4   -3    3    6    1   -0.000186    0.000014
   -4   -3    3    7    1    0.000165    0.000011
   -4   -3    3    8    1    0.000395   -0.000004
   -4   -3    3    1    2   -0.001007    0.000201
   -4   -3    3    2    2    0.000648   -0.000232
   -4   -3    3    3    2    0.000075   -0.000014
   -4   -3    3    4    2   -0.001331   -0.000128
   -4   -3    3    5    2    0.000223    0.000007
   -4   -3    3    6    2    0.000150    0.000014
   -4   -3    3    7    2   -0.000369    0.000086
   -4   -3    3    8    2   -0.000086    0.000083
   -4   -3    3    1    3    0.000042    0.000002
   -4   -3    3    2    3   -0.000126    0.000006
   -4   -3    3    3    3   -0.000961    0.000042
   -4   -3    3    4    3    0.000117   -0.000003
   -4   -3    3    5    3   -0.000150   -0.000016
   -4   -3    3    6    3   -0.000389    0.000086
   -4   -3    3    7    3   -0.000030    0.000062
   -4   -3    3    8    3   -0.000331    0.000020
   -4   -3    3    1    4    0.000981   -0.000177
   -4   -3    3    2    4    0.000815   -0.000128
   -4   -3    3    3    4    0.000043    0.000037
   -4   -3    3    4    4    0.000478    0.000037
   -4   -3    3    5    4   -0.000382   -0.000015
   -4   -3    3    6    4   -0.000063    0.000044
   -4   -3    3    7    4   -0.000361   -0.000007
   -4   -3    3    8    4    0.000144    0.000032
   -4   -3    3    1    5    0.000262   -0.000003
   -4   -3    3    2    5   -0.000368   -0.000006
   -4   -3    3    3    5   -0.000170   -0.000009
   -4   -3    3    4    5    0.000211    0.000027
   -4   -3    3    5    5   -0.001478    0.000152
   -4   -3    3    6    5    0.001033   -0.000134
   -4   -3    3    7    5   -0.000079   -0.000089
   -4   -3    3    8    5   -0.000961    0.000135
   -4   -3    3    1    6    0.000428    0.000036
   -4   -3    3    2    6    0.000179    0.000081
   -4   -3    3    3    6   -0.000297   -0.000039
   -4   -3    3    4    6   -0.000024   -0.000029
   -4   -3    3    5    6   -0.001119    0.000314
   -4   -3    3    6    6    0.000664   -0.000162
   -4   -3    3    7    6   -0.000244   -0.000061
   -4   -3    3    8    6    0.000822   -0.000057
   -4   -3    3    1    7    0.000189   -0.000021
   -4   -3    3    2    7   -0.000287   -0.000037
   -4   -3    3    3    7   -0.000001   -0.000114
   -4   -3    3    4    7   -0.000283   -0.000013
   -4   -3    3    5    7    0.000017    0.000057
   -4   -3    3    6    7    0.000125   -0.000015
   -4   -3    3    7    7   -0.000986   -0.000079
   -4   -3    3    8    7    0.000003    0.000030
   -4   -3    3    1    8   -0.000178   -0.000017
   -4   -3    3    2    8   -0.000023   -0.000057
   -4   -3    3    3    8   -0.000310    0.000017
   -4   -3    3    4    8    0.000123    0.000017
   -4   -3    3    5    8    0.000799    0.000080
   -4   -3    3    6    8   -0.001340   -0.000112
   -4   -3    3    7    8    0.000174    0.000046
   -4   -3    3    8    8    0.000511    0.000073
   -4   -3    4    1    1   -0.000310    0.000073
   -4   -3    4    2    1   -0.000565    0.000081
   -4   -3    4    3    1    0.000090    0.000034
   -4   -3    4    4    1    0.000428    0.000141
   -4   -3    4    5    1   -0.000834    0.000015
   -4   -3    4    6    1   -0.000265   -0.000001
   -4   -3    4    7    1   -0.000032   -0.000007
   -4   -3    4    8    1    0.000122    0.000039
   -4   -3    4    1    2    0.000856   -0.000066
   -4   -3    4    2    2   -0.001047    0.000030
   -4   -3    4    3    2    0.000432    0.000042
   -4   -3    4    4    2    0.000530   -0.000049
   -4   -3    4    5    2    0.000295    0.000001
   -4   -3    4    6    2    0.000635    0.000028
   -4   -3    4    7    2   -0.000265   -0.000009
   -4   -3    4    8    2   -0.000357   -0.000059
   -4   -3    4    1    3    0.001539    0.000152
   -4   -3    4    2    3   -0.000408   -0.000016
   -4   -3    4    3    3   -0.000415   -0.000039
   -4   -3    4    4    3    0.000822    0.000014
   -4   -3    4    5    3   -0.000110    0.000020
   -4   -3    4    6    3   -0.000281   -0.000030
   -4   -3    4    7    3    0.000672   -0.000066
   -4   -3    4    8    3   -0.000099   -0.000130
   -4   -3    4    1    4    0.000066   -0.000138
   -4   -3    4    2    4   -0.000626    0.000248
   -4   -3    4    3    4   -0.001104    0.000069
   -4   -3    4    4    4    0.000420   -0.000126
   -4   -3    4    5    4   -0.000113   -0.000041
   -4   -3    4    6    4   -0.000386   -0.000096
   -4   -3    4    7    4   -0.000124   -0.000084
   -4   -3    4    8    4   -0.000117    0.000029
   -4   -3    4    1    5   -0.002253    0.000164
   -4   -3    4    2    5    0.002291    0.001238
   -4   -3    4    3    5    0.000400   -0.000048
   -4   -3    4    4    5   -0.000733    0.000407
   -4   -3    4    5    5   -0.000166    0.000092
   -4   -3    4    6    5   -0.000909    0.000061
   -4   -3    4    7    5   -0.001582   -0.000017
   -4   -3    4    8    5    0.000060    0.000089
   -4   -3    4    1    6   -0.002351   -0.001123
   -4   -3    4    2    6    0.001248    0.000931
   -4   -3    4    3    6    0.000129    0.000143
   -4   -3    4    4    6   -0.000828    0.000064
   -4   -3    4    5    6    0.000531   -0.000120
   -4   -3    4    6    6   -0.001072    0.000019
   -4   -3    4    7    6   -0.000428   -0.000002
   -4   -3    4    8    6   -0.000668    0.000087
   -4   -3    4    1    7   -0.000552   -0.000034
   -4   -3    4    2    7    0.000245    0.000443
   -4   -3    4    3    7   -0.000686   -0.000104
   -4   -3    4    4    7   -0.000337    0.000096
   -4   -3    4    5    7   -0.000078   -0.000014
   -4   -3    4    6    7    0.000448    0.000062
   -4   -3    4    7    7   -0.000487    0.000027
   -4   -3    4    8    7   -0.001057    0.000195
   -4   -3    4    1    8    0.000745   -0.000283
   -4   -3    4    2    8   -0.000898   -0.000111
   -4   -3    4    3    8   -0.000161    0.000064
   -4   -3    4    4    8   -0.003031   -0.000167
   -4   -3    4    5    8   -0.000494   -0.000145
   -4   -3    4    6    8    0.000613   -0.000031
   -4   -3    4    7    8    0.000811   -0.000023
   -4   -3    4    8    8    0.000459   -0.000067
   -4   -2    2    1    1    0.000825   -0.000050
   -4   -2    2    2    1    0.000399    0.000059
   -4   -2    2    3    1   -0.000030    0.000018
   -4   -2    2    4    1   -0.000084   -0.000010
   -4   -2    2    5    1    0.000922    0.000033
   -4   -2    2    6    1   -0.000398    0.000004
   -4   -2    2    7    1    0.000271   -0.000019
   -4   -2    2    8    1   -0.000058   -0.000035
   -4   -2    2    1    2   -0.000067   -0.000023
   -4   -2    2    2    2    0.000691    0.000011
   -4   -2    2    3    2   -0.000019    0.000013
   -4   -2    2    4    2   -0.000519    0.000041
   -4   -2    2    5    2    0.000287    0.000006
   -4   -2    2    6    2   -0.000888   -0.000014
   -4   -2    2    7    2    0.001205   -0.000042
   -4   -2    2    8    2    0.000171   -0.000032
   -4   -2    2    1    3   -0.000038   -0.000000
   -4   -2    2    2    3   -0.000054    0.000002
   -4   -2    2    3    3    0.000190    0.000029
   -4   -2    2    4    3   -0.000028    0.000035
   -4   -2    2    5    3   -0.000174    0.000054
   -4   -2    2    6    3    0.001188   -0.000034
   -4   -2    2    7    3   -0.000333   -0.000051
   -4   -2    2    8    3   -0.000570   -0.000018
   -4   -2    2    1    4    0.000447   -0.000007
   -4   -2    2    2    4    0.000072    0.000002
   -4   -2    2    3    4   -0.000057   -0.000029
   -4   -2    2    4    4    0.000696   -0.000012
   -4   -2    2    5    4    0.000106    0.000031
   -4   -2    2    6    4    0.000195   -0.000008
   -4   -2    2    7    4   -0.000572   -0.000018
   -4   -2    2    8    4    0.000346   -0.000030
   -4   -2    2    1    5    0.000886   -0.000022
   -4   -2    2    2    5    0.000106   -0.000010
   -4   -2    2    3    5   -0.000186   -0.000018
   -4   -2    2    4    5    0.000256    0.000011
   -4   -2    2    5    5    0.000800   -0.000022
   -4   -2    2    6    5    0.000074    0.000016
   -4   -2    2    7    5    0.000129   -0.000004
   -4   -2    2    8    5   -0.000433    0.000011
   -4   -2    2    1    6   -0.000061   -0.000001
   -4   -2    2    2    6    0.000341    0.000031
   -4   -2    2    3    6   -0.000539    0.000060
   -4   -2    2    4    6    0.000129    0.000010
   -4   -2    2    5    6   -0.000380   -0.000050
   -4   -2    2    6    6    0.000701    0.000021
   -4   -2    2    7    6   -0.000078   -0.000005
   -4   -2    2    8    6    0.000071    0.000005
   -4   -2    2    1    7    0.000311   -0.000009
   -4   -2    2    2    7   -0.000538    0.000049
   -4   -2    2    3    7   -0.000244    0.000070
   -4   -2    2    4    7    0.001182    0.000021
   -4   -2    2    5    7    0.000054    0.000006
   -4   -2    2    6    7   -0.000002   -0.000001
   -4   -2    2    7    7    0.000210    0.000011
   -4   -2    2    8    7   -0.000074   -0.000021
   -4   -2    2    1    8   -0.000375   -0.000001
   -4   -2    2    2    8    0.000169    0.000033
   -4   -2    2    3    8    0.001153    0.000035
   -4   -2    2    4    8   -0.000861   -0.000011
   -4   -2    2    5    8    0.000085   -0.000002
   -4   -2    2    6    8   -0.000523    0.000054
   -4   -2    2    7    8   -0.000026    0.000022
   -4   -2    2    8    8    0.000703   -0.000006
   -4   -2    3    1    1   -0.000477   -0.000002
   -4   -2    3    2    1   -0.000611   -0.000014
   -4   -2    3    3    1    0.000400   -0.000006
   -4   -2    3    4    1    0.000050   -0.000001
   -4   -2    3    5    1   -0.000336    0.000011
   -4   -2    3    6    1    0.000552   -0.000014
   -4   -2    3    7    1   -0.000318   -0.000006
   -4   -2    3    8    1    0.000072   -0.000040
   -4   -2    3    1    2   -0.000196    0.000008
   -4   -2    3    2    2   -0.000050    0.000018
   -4   -2    3    3    2   -0.000860   -0.000002
   -4   -2    3    4    2    0.000203   -0.000018
   -4   -2    3    5    2   -0.000549    0.000013
   -4   -2    3    6    2   -0.000562   -0.000076
   -4   -2    3    7    2   -0.000058    0.000024
   -4   -2    3    8    2    0.000328    0.000020
   -4   -2    3    1    3   -0.000248    0.000027
   -4   -2    3    2    3   -0.000358    0.000022
   -4   -2    3    3    3   -0.000070   -0.000011
   -4   -2    3    4    3   -0.000112    0.000004
   -4   -2    3    5    3    0.000459    0.000023
   -4   -2    3    6    3    0.000070    0.000000
   -4   -2    3    7    3   -0.001785   -0.000027
   -4   -2    3    8    3   -0.000197   -0.000027
   -4   -2    3    1    4   -0.000319    0.000016
   -4   -2    3    2    4   -0.000688    0.000035
   -4   -2    3    3    4    0.001178   -0.000046
   -4   -2    3    4    4   -0.000341   -0.000019
   -4   -2    3    5    4   -0.000040    0.000035
   -4   -2    3    6    4    0.000333   -0.000005
   -4   -2    3    7    4   -0.000217   -0.000001
   -4   -2    3    8    4    0.000227   -0.000010
   -4   -2    3    1    5   -0.000345   -0.000080
   -4   -2    3    2    5   -0.000379   -0.000096
   -4   -2    3    3    5   -0.000066   -0.000007
   -4   -2    3    4    5    0.000289   -0.000033
   -4   -2    3    5    5   -0.000462    0.000001
   -4   -2    3    6    5    0.000261    0.000009
   -4   -2    3    7    5    0.000223   -0.000009
   -4   -2    3    8    5    0.000174    0.000000
   -4   -2    3    1    6    0.000370    0.000047
   -4   -2    3    2    6   -0.000285    0.000193
   -4   -2    3    3    6   -0.000054   -0.000006
   -4   -2    3    4    6   -0.000173   -0.000040
   -4   -2    3    5    6    0.000680    0.000021
   -4   -2    3    6    6   -0.000020    0.000007
   -4   -2    3    7    6   -0.000331    0.000004
   -4   -2    3    8    6   -0.000686    0.000013
   -4   -2    3    1    7   -0.000067   -0.000002
   -4   -2    3    2    7   -0.000097   -0.000033
   -4   -2    3    3    7    0.000957    0.000052
   -4   -2    3    4    7    0.000026    0.000004
   -4   -2    3    5    7   -0.000423   -0.000023
   -4   -2    3    6    7   -0.000791    0.000002
   -4   -2    3    7    7   -0.000076    0.000009
   -4   -2    3    8    7    0.001205   -0.000072
   -4   -2    3    1    8   -0.000288    0.000055
   -4   -2    3    2    8   -0.000159   -0.000007
   -4   -2    3    3    8   -0.000014   -0.000009
   -4   -2    3    4    8    0.000970   -0.000014
   -4   -2    3    5    8   -0.000021    0.000015
   -4   -2    3    6    8    0.000206    0.000009
   -4   -2    3    7    8   -0.000140    0.000033
   -4   -2    3    8    8   -0.000354   -0.000002
   -4   -2    4    1    1    0.000495    0.000008
   -4   -2    4    2    1   -0.000318    0.000022
   -4   -2    4    3    1   -0.000168   -0.000003
   -4   -2    4    4    1    0.000310   -0.000028
   -4   -2    4    5    1   -0.000061    0.000024
   -4   -2    4    6    1   -0.000099   -0.000012
   -4   -2    4    7    1    0.000351    0.000009
   -4   -2    4    8    1   -0.000708   -0.000021
   -4   -2    4    1    2    0.000099   -0.000009
   -4   -2    4    2    2    0.000592   -0.000036
   -4   -2    4    3    2    0.000457    0.000021
   -4   -2    4    4    2    0.000025    0.000012
   -4   -2    4    5    2   -0.000002    0.000009
   -4   -2    4    6    2    0.000368   -0.000016
   -4   -2    4    7    2    0.000864    0.000028
   -4   -2    4    8    2   -0.000209   -0.000005
   -4   -2    4    1    3    0.000327    0.000003
   -4   -2    4    2    3    0.000070   -0.000003
   -4   -2    4    3    3    0.000650    0.000031
   -4   -2    4    4    3    0.000253   -0.000024
   -4   -2    4    5    3   -0.000486    0.000013
   -4   -2    4    6    3    0.000876    0.000018
   -4   -2    4    7    3    0.001064    0.000023
   -4   -2    4    8    3   -0.000990   -0.000031
   -4   -2    4    1    4    0.000269   -0.000009
   -4   -2    4    2    4   -0.000307   -0.000047
   -4   -2    4    3    4   -0.000184   -0.000034
   -4   -2    4    4    4    0.000656   -0.000001
   -4   -2    4    5    4    0.000802    0.000011
   -4   -2    4    6    4   -0.000187    0.000012
   -4   -2    4    7    4   -0.000851   -0.000028
   -4   -2    4    8    4    0.000481   -0.000010
   -4   -2    4    1    5   -0.000076    0.000021
   -4   -2    4    2    5   -0.000352   -0.000004
   -4   -2    4    3    5    0.000156    0.000006
   -4   -2    4    4    5   -0.000071   -0.000004
   -4   -2    4    5    5    0.000506    0.000007
   -4   -2    4    6    5   -0.000134   -0.000007
   -4   -2    4    7    5   -0.000338   -0.000025
   -4   -2    4    8    5   -0.000238    0.000016
   -4   -2    4    1    6    0.000336    0.000010
   -4   -2    4    2    6    0.000521   -0.000001
   -4   -2    4    3    6    0.000011   -0.000017
   -4   -2    4    4    6    0.000090   -0.000029
   -4   -2    4    5    6    0.000303   -0.000023
   -4   -2    4    6    6    0.000581   -0.000006
   -4   -2    4    7    6    0.000083   -0.000010
   -4   -2    4    8    6   -0.000304   -0.000005
   -4   -2    4    1    7   -0.000207   -0.000002
   -4   -2    4    2    7   -0.000020    0.000020
   -4   -2    4    3    7    0.000655   -0.000031
   -4   -2    4    4    7    0.000211   -0.000054
   -4   -2    4    5    7    0.000139    0.000012
   -4   -2    4    6    7    0.000484   -0.000008
   -4   -2    4    7    7    0.000654    0.000010
   -4   -2    4    8    7   -0.000228   -0.000069
   -4   -2    4    1    8    0.000036    0.000039
   -4   -2    4    2    8    0.000097   -0.000069
   -4   -2    4    3    8    0.000198   -0.000018
   -4   -2    4    4    8    0.001038    0.000022
   -4   -2    4    5    8   -0.000331    0.000026
   -4   -2    4    6    8    0.000001    0.000026
   -4   -2    4    7    8    0.000237    0.000029
   -4   -2    4    8    8    0.000669    0.000003
   -4   -1    1    1    1    0.000800   -0.000011
   -4   -1    1    2    1   -0.000037    0.000006
   -4   -1    1    3    1   -0.000067   -0.000006
   -4   -1    1    4    1   -0.000778   -0.000023
   -4   -1    1    5    1    0.002060   -0.000005
   -4   -1    1    6    1   -0.001026    0.000004
   -4   -1    1    7    1    0.000203   -0.000007
   -4   -1    1    8    1   -0.000701   -0.000002
   -4   -1    1    1    2   -0.000740    0.000020
   -4   -1    1    2    2   -0.001267    0.000017
   -4   -1    1    3    2    0.000027    0.000043
   -4   -1    1    4    2   -0.001801    0.000000
   -4   -1    1    5    2    0.001092   -0.000032
   -4   -1    1    6    2   -0.001310    0.000014
   -4   -1    1    7    2   -0.000466    0.000024
   -4   -1    1    8    2   -0.001310    0.000011
   -4   -1    1    1    3   -0.000048   -0.000006
   -4   -1    1    2    3    0.000010   -0.000010
   -4   -1    1    3    3   -0.000317    0.000003
   -4   -1    1    4    3    0.000063    0.000007
   -4   -1    1    5    3    0.000030    0.000006
   -4   -1    1    6    3   -0.000503    0.000010
   -4   -1    1    7    3   -0.000720   -0.000002
   -4   -1    1    8    3    0.000504   -0.000011
   -4   -1    1    1    4   -0.000067   -0.000027
   -4   -1    1    2    4    0.000083   -0.000006
   -4   -1    1    3    4    0.000017   -0.000037
   -4   -1    1    4    4   -0.001280   -0.000029
   -4   -1    1    5    4    0.000625    0.000018
   -4   -1    1    6    4   -0.001303   -0.000006
   -4   -1    1    7    4    0.000534   -0.000026
   -4   -1    1    8    4   -0.000222   -0.000011
   -4   -1    1    1    5    0.002015    0.000004
   -4   -1    1    2    5    0.000581   -0.000015
   -4   -1    1    3    5    0.000030   -0.000000
   -4   -1    1    4    5    0.001063    0.000017
   -4   -1    1    5    5    0.000777   -0.000002
   -4   -1    1    6    5    0.000712   -0.000017
   -4   -1    1    7    5    0.000189    0.000016
   -4   -1    1    8    5    0.000070    0.000013
   -4   -1    1    1    6   -0.000665    0.000009
   -4   -1    1    2    6   -0.000164    0.000008
   -4   -1    1    3    6    0.000496    0.000015
   -4   -1    1    4    6   -0.001317   -0.000001
   -4   -1    1    5    6    0.000038   -0.000014
   -4   -1    1    6    6   -0.001275    0.000015
   -4   -1    1    7    6    0.000021   -0.000034
   -4   -1    1    8    6    0.000070    0.000013
   -4   -1    1    1    7    0.000256    0.000012
   -4   -1    1    2    7    0.000541    0.000009
   -4   -1    1    3    7   -0.000691   -0.000005
   -4   -1    1    4    7   -0.000454    0.000014
   -4   -1    1    5    7    0.000190   -0.000003
   -4   -1    1    6    7    0.000091    0.000007
   -4   -1    1    7    7   -0.000281    0.000000
   -4   -1    1    8    7    0.000002   -0.000004
   -4   -1    1    1    8   -0.001004   -0.000017
   -4   -1    1    2    8   -0.001311    0.000014
   -4   -1    1    3    8   -0.000546   -0.000013
   -4   -1    1    4    8   -0.001290   -0.000034
   -4   -1    1    5    8    0.000760    0.000021
   -4   -1    1    6    8   -0.001795   -0.000006
   -4   -1    1    7    8    0.000049    0.000031
   -4   -1    1    8    8   -0.001284   -0.000034
   -4   -1    2    1    1   -0.000701   -0.000019
   -4   -1    2    2    1   -0.000378    0.000013
   -4   -1    2    3    1   -0.000148   -0.000003
   -4   -1    2    4    1    0.000895   -0.000038
   -4   -1    2    5    1   -0.000805    0.000008
   -4   -1    2    6    1    0.000164    0.000013
   -4   -1    2    7    1   -0.000158   -0.000024
   -4   -1    2    8    1    0.000021   -0.000017
   -4   -1    2    1    2    0.000656    0.000007
   -4   -1    2    2    2    0.000536    0.000014
   -4   -1    2    3    2    0.000345    0.000018
   -4   -1    2    4    2    0.000870   -0.000019
   -4   -1    2    5    2   -0.000070   -0.000013
   -4   -1    2    6    2    0.001286   -0.000023
   -4   -1    2    7    2   -0.000639    0.000026
   -4   -1    2    8    2    0.000063    0.000016
   -4   -1    2    1    3    0.000160   -0.000002
   -4   -1    2    2    3    0.001234   -0.000008
   -4   -1    2    3    3   -0.000530    0.000025
   -4   -1    2    4    3    0.000436    0.000002
   -4   -1    2    5    3   -0.000137    0.000006
   -4   -1    2    6    3   -0.000624    0.000054
   -4   -1    2    7    3    0.001861    0.000000
   -4   -1    2    8    3   -0.000384   -0.000037
   -4   -1    2    1    4   -0.000464   -0.000018
   -4   -1    2    2    4   -0.000611   -0.000002
   -4   -1    2    3    4   -0.000814   -0.000014
   -4   -1    2    4    4    0.000330   -0.000022
   -4   -1    2    5    4    0.000004    0.000021
   -4   -1    2    6    4    0.000066    0.000014
   -4   -1    2    7    4   -0.000356   -0.000028
   -4   -1    2    8    4   -0.000880   -0.000022
   -4   -1    2    1    5   -0.001174    0.000000
   -4   -1    2    2    5   -0.000498    0.000005
   -4   -1    2    3    5    0.000140   -0.000009
   -4   -1    2    4    5   -0.000816    0.000013
   -4   -1    2    5    5   -0.000715    0.000012
   -4   -1    2    6    5   -0.000688   -0.000027
   -4   -1    2    7    5   -0.000171   -0.000004
   -4   -1    2    8    5    0.000558    0.000008
   -4   -1    2    1    6    0.000494   -0.000003
   -4   -1    2    2    6    0.000193   -0.000013
   -4   -1    2    3    6    0.000007    0.000020
   -4   -1    2    4    6    0.001072    0.000002
   -4   -1    2    5    6    0.000261   -0.000029
   -4   -1    2    6    6    0.000511    0.000016
   -4   -1    2    7    6    0.001283   -0.000013
   -4   -1    2    8    6   -0.000634    0.000021
   -4   -1    2    1    7   -0.000182   -0.000018
   -4   -1    2    2    7   -0.000020   -0.000001
   -4   -1    2    3    7   -0.000369   -0.000030
   -4   -1    2    4    7   -0.000075   -0.000024
   -4   -1    2    5    7    0.000105    0.000018
   -4   -1    2    6    7    0.000345    0.000019
   -4   -1    2    7    7   -0.000508   -0.000007
   -4   -1    2    8    7   -0.000769   -0.000029
   -4   -1    2    1    8    0.000836   -0.000013
   -4   -1    2    2    8    0.001081    0.000000
   -4   -1    2    3    8   -0.000045   -0.000002
   -4   -1    2    4    8    0.000845   -0.000016
   -4   -1    2    5    8   -0.000925    0.000016
   -4   -1    2    6    8    0.000864    0.000005
   -4   -1    2    7    8    0.000329    0.000018
   -4   -1    2    8    8    0.000339   -0.000024
   -4   -1    3    1    1    0.000744   -0.000003
   -4   -1    3    2    1    0.000574    0.000013
   -4   -1    3    3    1    0.001130   -0.000004
   -4   -1    3    4    1   -0.000700   -0.000021
   -4   -1    3    5    1    0.001089    0.000003
   -4   -1    3    6    1   -0.000465    0.000000
   -4   -1    3    7    1    0.000003   -0.000000
   -4   -1    3    8    1    0.000593   -0.000012
   -4   -1    3    1    2    0.000212    0.000003
   -4   -1    3    2    2   -0.000775   -0.000009
   -4   -1    3    3    2    0.000187    0.000028
   -4   -1    3    4    2   -0.000810    0.000008
   -4   -1    3    5    2    0.000586   -0.000019
   -4   -1    3    6    2   -0.001260   -0.000012
   -4   -1    3    7    2   -0.001081    0.000056
   -4   -1    3    8    2    0.000229    0.000002
   -4   -1    3    1    3   -0.000192    0.000003
   -4   -1    3    2    3    0.000324    0.000020
   -4   -1    3    3    3   -0.000692    0.000034
   -4   -1    3    4    3   -0.000737   -0.000026
   -4   -1    3    5    3    0.000262    0.000007
   -4   -1    3    6    3   -0.001042    0.000037
   -4   -1    3    7    3   -0.001510    0.000027
   -4   -1    3    8    3    0.001604   -0.000053
   -4   -1    3    1    4    0.000747   -0.000009
   -4   -1    3    2    4    0.000840    0.000007
   -4   -1    3    3    4    0.000166   -0.000047
   -4   -1    3    4    4    0.000357   -0.000020
   -4   -1    3    5    4   -0.000771    0.000024
   -4   -1    3    6    4    0.000187   -0.000003
   -4   -1    3    7    4    0.001547   -0.000055
   -4   -1    3    8    4   -0.000470   -0.000007
   -4   -1    3    1    5    0.000210   -0.000015
   -4   -1    3    2    5   -0.000256   -0.000025
   -4   -1    3    3    5   -0.000549    0.000009
   -4   -1    3    4    5    0.000171    0.000008
   -4   -1    3    5    5    0.000807    0.000009
   -4   -1    3    6    5   -0.000233   -0.000021
   -4   -1    3    7    5    0.000335    0.000007
   -4   -1    3    8    5   -0.000750    0.000002
   -4   -1    3    1    6    0.000270   -0.000001
   -4   -1    3    2    6    0.000421    0.000017
   -4   -1    3    3    6   -0.000134    0.000002
   -4   -1    3    4    6    0.000285   -0.000015
   -4   -1    3    5    6   -0.000574   -0.000019
   -4   -1    3    6    6   -0.000776   -0.000005
   -4   -1    3    7    6    0.000265   -0.000019
   -4   -1    3    8    6    0.000827    0.000019
   -4   -1    3    1    7    0.000601   -0.000053
   -4   -1    3    2    7   -0.000140    0.000017
   -4   -1    3    3    7   -0.000055    0.000034
   -4   -1    3    4    7   -0.000381   -0.000038
   -4   -1    3    5    7   -0.000987    0.000002
   -4   -1    3    6    7    0.000184    0.000012
   -4   -1    3    7    7   -0.000762    0.000026
   -4   -1    3    8    7    0.000094   -0.000032
   -4   -1    3    1    8   -0.000149    0.000002
   -4   -1    3    2    8    0.000300    0.000001
   -4   -1    3    3    8   -0.000372   -0.000024
   -4   -1    3    4    8   -0.001056    0.000005
   -4   -1    3    5    8    0.000797    0.000011
   -4   -1    3    6    8   -0.000820    0.000021
   -4   -1    3    7    8   -0.000632    0.000006
   -4   -1    3    8    8    0.000362   -0.000021
   -4   -1    4    1    1   -0.000455   -0.000005
   -4   -1    4    2    1   -0.000541    0.000015
   -4   -1    4    3    1   -0.000923    0.000001
   -4   -1    4    4    1    0.001242   -0.000026
   -4   -1    4    5    1   -0.000893    0.000026
   -4   -1    4    6    1    0.000845   -0.000027
   -4   -1    4    7    1   -0.000279    0.000007
   -4   -1    4    8    1   -0.000620   -0.000009
   -4   -1    4    1    2   -0.000273   -0.000008
   -4   -1    4    2    2    0.000366   -0.000003
   -4   -1    4    3    2    0.000564    0.000009
   -4   -1    4    4    2    0.000279   -0.000021
   -4   -1    4    5    2   -0.000853    0.000012
   -4   -1    4    6    2    0.001684   -0.000012
   -4   -1    4    7    2    0.000141    0.000024
   -4   -1    4    8    2   -0.000361   -0.000008
   -4   -1    4    1    3   -0.000504    0.000005
   -4   -1    4    2    3    0.000348    0.000027
   -4   -1    4    3    3   -0.000536    0.000022
   -4   -1    4    4    3    0.001532   -0.000030
   -4   -1    4    5    3   -0.000023   -0.000015
   -4   -1    4    6    3    0.000167    0.000048
   -4   -1    4    7    3    0.002246    0.000003
   -4   -1    4    8    3   -0.000948   -0.000034
   -4   -1    4    1    4   -0.000065    0.000001
   -4   -1    4    2    4   -0.000001    0.000009
   -4   -1    4    3    4    0.000003   -0.000014
   -4   -1    4    4    4   -0.001441    0.000001
   -4   -1    4    5    4    0.000713    0.000017
   -4   -1    4    6    4   -0.000344   -0.000018
   -4   -1    4    7    4   -0.000829   -0.000021
   -4   -1    4    8    4    0.000121   -0.000001
   -4   -1    4    1    5    0.000038    0.000023
   -4   -1    4    2    5    0.000148   -0.000019
   -4   -1    4    3    5   -0.000124   -0.000010
   -4   -1    4    4    5    0.000601    0.000018
   -4   -1    4    5    5   -0.000623    0.000022
   -4   -1    4    6    5    0.000217   -0.000004
   -4   -1    4    7    5    0.000499   -0.000012
   -4   -1    4    8    5    0.000066   -0.000014
   -4   -1    4    1    6   -0.000214    0.000014
   -4   -1    4    2    6    0.000384    0.000004
   -4   -1    4    3    6    0.000674    0.000030
   -4   -1    4    4    6   -0.000435    0.000010
   -4   -1    4    5    6    0.000510   -0.000041
   -4   -1    4    6    6    0.000358   -0.000000
   -4   -1    4    7    6    0.000376    0.000024
   -4   -1    4    8    6   -0.000015    0.000029
   -4   -1    4    1    7    0.000063   -0.000012
   -4   -1    4    2    7    0.000737    0.000021
   -4   -1    4    3    7    0.000626    0.000004
   -4   -1    4    4    7   -0.001067   -0.000043
   -4   -1    4    5    7    0.000898    0.000017
   -4   -1    4    6    7    0.000597    0.000003
   -4   -1    4    7    7   -0.000330   -0.000002
   -4   -1    4    8    7   -0.000009   -0.000024
   -4   -1    4    1    8   -0.000495   -0.000006
   -4   -1    4    2    8   -0.000469    0.000011
   -4   -1    4    3    8   -0.001108   -0.000024
   -4   -1    4    4    8    0.001097   -0.000013
   -4   -1    4    5    8   -0.001392    0.000015
   -4   -1    4    6    8    0.000222   -0.000006
   -4   -1    4    7    8    0.001428   -0.000014
   -4   -1    4    8    8   -0.001455    0.000000
   -4    0    0    1    1    0.000440    0.000000
   -4    0    0    2    1   -0.000659   -0.000005
   -4    0    0    3    1   -0.000290    0.000015
   -4    0    0    4    1   -0.000716    0.000014
   -4    0    0    5    1    0.001839   -0.000036
   -4    0    0    6    1   -0.001154    0.000028
   -4    0    0    7    1    0.000494   -0.000054
   -4    0    0    8    1   -0.001181    0.000038
   -4    0    0    1    2   -0.000659    0.000005
   -4    0    0    2    2   -0.001330    0.000000
   -4    0    0    3    2    0.000058    0.000039
   -4    0    0    4    2   -0.000793    0.000004
   -4    0    0    5    2    0.001177   -0.000019
   -4    0    0    6    2   -0.001117    0.000023
   -4    0    0    7    2   -0.000443   -0.000017
   -4    0    0    8    2   -0.000732    0.000007
   -4    0    0    1    3   -0.000290   -0.000015
   -4    0    0    2    3    0.000058   -0.000039
   -4    0    0    3    3   -0.003769    0.000000
   -4    0    0    4    3    0.000060    0.000023
   -4    0    0    5    3   -0.000533   -0.000024
   -4    0    0    6    3   -0.000520    0.000005
   -4    0    0    7    3    0.001912    0.000009
   -4    0    0    8    3   -0.000572    0.000005
   -4    0    0    1    4   -0.000716   -0.000014
   -4    0    0    2    4   -0.000793   -0.000004
   -4    0    0    3    4    0.000060   -0.000023
   -4    0    0    4    4   -0.001397    0.000000
   -4    0    0    5    4    0.001211   -0.000017
   -4    0    0    6    4   -0.000737    0.000003
   -4    0    0    7    4   -0.000466   -0.000056
   -4    0    0    8    4   -0.001159    0.000033
   -4    0    0    1    5    0.001839    0.000036
   -4    0    0    2    5    0.001177    0.000019
   -4    0    0    3    5   -0.000533    0.000024
   -4    0    0    4    5    0.001211    0.000017
   -4    0    0    5    5    0.000359    0.000000
   -4    0    0    6    5    0.000616   -0.000010
   -4    0    0    7    5    0.000738    0.000057
   -4    0    0    8    5    0.000683    0.000006
   -4    0    0    1    6   -0.001154   -0.000028
   -4    0    0    2    6   -0.001117   -0.000023
   -4    0    0    3    6   -0.000520   -0.000005
   -4    0    0    4    6   -0.000737   -0.000003
   -4    0    0    5    6    0.000616    0.000010
   -4    0    0    6    6   -0.001340    0.000000
   -4    0    0    7    6    0.000194   -0.000060
   -4    0    0    8    6   -0.000780   -0.000000
   -4    0    0    1    7    0.000494    0.000054
   -4    0    0    2    7   -0.000443    0.000017
   -4    0    0    3    7    0.001912   -0.000009
   -4    0    0    4    7   -0.000466    0.000056
   -4    0    0    5    7    0.000738   -0.000057
   -4    0    0    6    7    0.000194    0.000060
   -4    0    0    7    7   -0.003675    0.000000
   -4    0    0    8    7    0.000127    0.000017
   -4    0    0    1    8   -0.001181   -0.000038
   -4    0    0    2    8   -0.000732   -0.000007
   -4    0    0    3    8   -0.000572   -0.000005
   -4    0    0    4    8   -0.001159   -0.000033
   -4    0    0    5    8    0.000683   -0.000006
   -4    0    0    6    8   -0.000780    0.000000
   -4    0    0    7    8    0.000127   -0.000017
   -4    0    0    8    8   -0.001402    0.000000
   -4    0    1    1    1   -0.000912    0.000006
   -4    0    1    2    1    0.000763    0.000021
   -4    0    1    3    1    0.000367   -0.000003
   -4    0    1    4    1    0.000377   -0.000001
   -4    0    1    5    1   -0.001282   -0.000031
   -4    0    1    6    1    0.001707    0.000019
   -4    0    1    7    1   -0.001276   -0.000036
   -4    0    1    8    1    0.000790    0.000032
   -4    0    1    1    2   -0.000132    0.000026
   -4    0    1    2    2    0.000592    0.000021
   -4    0    1    3    2    0.000280    0.000038
   -4    0    1    4    2    0.001218    0.000018
   -4    0    1    5    2   -0.001452   -0.000060
   -4    0    1    6    2    0.003471    0.000002
   -4    0    1    7    2   -0.001996    0.000005
   -4    0    1    8    2    0.001438    0.000066
   -4    0    1    1    3    0.000396   -0.000013
   -4    0    1    2    3   -0.000427   -0.000002
   -4    0    1    3    3   -0.000050   -0.000002
   -4    0    1    4    3   -0.000643   -0.000005
   -4    0    1    5    3    0.001318   -0.000005
   -4    0    1    6    3   -0.001817    0.000030
   -4    0    1    7    3   -0.001797    0.000019
   -4    0    1    8    3    0.000312   -0.000038
   -4    0    1    1    4    0.000641   -0.000020
   -4    0    1    2    4    0.000796    0.000003
   -4    0    1    3    4    0.000516   -0.000039
   -4    0    1    4    4    0.001266   -0.000021
   -4    0    1    5    4   -0.000802    0.000019
   -4    0    1    6    4    0.001420    0.000018
   -4    0    1    7    4    0.000247   -0.000057
   -4    0    1    8    4    0.000159   -0.000012
   -4    0    1    1    5   -0.001718    0.000015
   -4    0    1    2    5   -0.000447   -0.000003
   -4    0    1    3    5   -0.000270    0.000016
   -4    0    1    4    5   -0.001019    0.000015
   -4    0    1    5    5   -0.000809   -0.000005
   -4    0    1    6    5    0.000086   -0.000013
   -4    0    1    7    5   -0.000464    0.000028
   -4    0    1    8    5   -0.000687    0.000010
   -4    0    1    1    6    0.000443    0.000007
   -4    0    1    2    6   -0.000079    0.000004
   -4    0    1    3    6   -0.000065    0.000022
   -4    0    1    4    6    0.000861    0.000013
   -4    0    1    5    6   -0.000725   -0.000021
   -4    0    1    6    6    0.000595    0.000021
   -4    0    1    7    6   -0.000462   -0.000033
   -4    0    1    8    6    0.000809    0.000017
   -4    0    1    1    7   -0.000088    0.000028
   -4    0    1    2    7   -0.000059    0.000040
   -4    0    1    3    7    0.002178   -0.000011
   -4    0    1    4    7   -0.000150   -0.000004
   -4    0    1    5    7   -0.000460   -0.000026
   -4    0    1    6    7    0.000383    0.000043
   -4    0    1    7    7   -0.000172    0.000002
   -4    0    1    8    7    0.000431   -0.000009
   -4    0    1    1    8    0.001046   -0.000028
   -4    0    1    2    8    0.000874    0.000002
   -4    0    1    3    8   -0.000126   -0.000038
   -4    0    1    4    8    0.001214   -0.000032
   -4    0    1    5    8   -0.000303    0.000019
   -4    0    1    6    8    0.001245   -0.000015
   -4    0    1    7    8   -0.000681   -0.000001
   -4    0    1    8    8    0.001271   -0.000015
   -4    0    2    1    1    0.000460   -0.000015
   -4    0    2    2    1   -0.000255    0.000020
   -4    0    2    3    1   -0.000164   -0.000005
   -4    0    2    4    1   -0.000314   -0.000031
   -4    0    2    5    1    0.000347   -0.000020
   -4    0    2    6    1   -0.001359    0.000025
   -4    0    2    7    1    0.001905   -0.000030
[...]
    5   -2    0    2    7    0.001217   -0.000003
    5   -2    0    3    7   -0.000103   -0.000024
    5   -2    0    4    7   -0.000778    0.000029
    5   -2    0    5    7    0.000125   -0.000005
    5   -2    0    6    7    0.000114   -0.000021
    5   -2    0    7    7    0.000007   -0.000013
    5   -2    0    8    7   -0.000068    0.000024
    5   -2    0    1    8   -0.000409   -0.000024
    5   -2    0    2    8   -0.000459    0.000002
    5   -2    0    3    8   -0.000874   -0.000014
    5   -2    0    4    8   -0.000513   -0.000030
    5   -2    0    5    8   -0.000140    0.000025
    5   -2    0    6    8   -0.000764   -0.000014
    5   -2    0    7    8   -0.000089   -0.000002
    5   -2    0    8    8   -0.001067   -0.000016
    5   -1   -3    1    1    0.000202   -0.000005
    5   -1   -3    2    1   -0.000070   -0.000006
    5   -1   -3    3    1   -0.000676    0.000025
    5   -1   -3    4    1    0.000810   -0.000004
    5   -1   -3    5    1    0.000453    0.000008
    5   -1   -3    6    1    0.000425   -0.000024
    5   -1   -3    7    1   -0.000439    0.000006
    5   -1   -3    8    1   -0.000369    0.000015
    5   -1   -3    1    2   -0.000077   -0.000020
    5   -1   -3    2    2    0.000894   -0.000012
    5   -1   -3    3    2    0.000030   -0.000026
    5   -1   -3    4    2    0.000084   -0.000008
    5   -1   -3    5    2   -0.000507    0.000011
    5   -1   -3    6    2    0.000799    0.000010
    5   -1   -3    7    2    0.000607   -0.000037
    5   -1   -3    8    2   -0.000338   -0.000004
    5   -1   -3    1    3   -0.000698    0.000016
    5   -1   -3    2    3    0.000076    0.000049
    5   -1   -3    3    3    0.000086   -0.000019
    5   -1   -3    4    3    0.001005   -0.000036
    5   -1   -3    5    3    0.000402   -0.000008
    5   -1   -3    6    3    0.000596   -0.000017
    5   -1   -3    7    3    0.001026    0.000002
    5   -1   -3    8    3   -0.000771    0.000029
    5   -1   -3    1    4    0.000789    0.000008
    5   -1   -3    2    4    0.000075    0.000003
    5   -1   -3    3    4    0.000956    0.000059
    5   -1   -3    4    4   -0.000847    0.000006
    5   -1   -3    5    4    0.000472    0.000003
    5   -1   -3    6    4   -0.000342   -0.000031
    5   -1   -3    7    4   -0.000709    0.000047
    5   -1   -3    8    4    0.000397    0.000017
    5   -1   -3    1    5   -0.000458    0.000009
    5   -1   -3    2    5   -0.000105    0.000000
    5   -1   -3    3    5   -0.000430    0.000023
    5   -1   -3    4    5    0.000245    0.000011
    5   -1   -3    5    5    0.000062   -0.000019
    5   -1   -3    6    5    0.000078    0.000031
    5   -1   -3    7    5    0.000666   -0.000004
    5   -1   -3    8    5   -0.000914   -0.000012
    5   -1   -3    1    6   -0.000009   -0.000007
    5   -1   -3    2    6    0.001100   -0.000003
    5   -1   -3    3    6    0.001152   -0.000006
    5   -1   -3    4    6   -0.000831   -0.000017
    5   -1   -3    5    6    0.000054    0.000016
    5   -1   -3    6    6    0.000891   -0.000009
    5   -1   -3    7    6    0.000078    0.000018
    5   -1   -3    8    6    0.000065   -0.000007
    5   -1   -3    1    7    0.000161    0.000013
    5   -1   -3    2    7    0.001175    0.000031
    5   -1   -3    3    7    0.001868    0.000006
    5   -1   -3    4    7   -0.001239   -0.000011
    5   -1   -3    5    7    0.000672   -0.000038
    5   -1   -3    6    7    0.000016   -0.000009
    5   -1   -3    7    7    0.000254   -0.000015
    5   -1   -3    8    7    0.000875    0.000056
    5   -1   -3    1    8   -0.000126   -0.000004
    5   -1   -3    2    8   -0.000888   -0.000017
    5   -1   -3    3    8   -0.001272   -0.000020
    5   -1   -3    4    8    0.002162    0.000019
    5   -1   -3    5    8   -0.000919    0.000020
    5   -1   -3    6    8    0.000062   -0.000027
    5   -1   -3    7    8    0.000931   -0.000015
    5   -1   -3    8    8   -0.000862    0.000011
    5   -1   -2    1    1   -0.000367   -0.000015
    5   -1   -2    2    1    0.000397   -0.000022
    5   -1   -2    3    1    0.000483    0.000021
    5   -1   -2    4    1   -0.000185    0.000007
    5   -1   -2    5    1   -0.001284   -0.000010
    5   -1   -2    6    1    0.000828   -0.000003
    5   -1   -2    7    1   -0.000127   -0.000018
    5   -1   -2    8    1    0.000455    0.000018
    5   -1   -2    1    2    0.000302   -0.000028
    5   -1   -2    2    2    0.000312   -0.000008
    5   -1   -2    3    2   -0.000206   -0.000021
    5   -1   -2    4    2   -0.000205   -0.000017
    5   -1   -2    5    2   -0.000833    0.000005
    5   -1   -2    6    2   -0.000475    0.000020
    5   -1   -2    7    2   -0.000109   -0.000058
    5   -1   -2    8    2    0.000715   -0.000016
    5   -1   -2    1    3    0.000573    0.000005
    5   -1   -2    2    3   -0.000230    0.000005
    5   -1   -2    3    3    0.000147    0.000006
    5   -1   -2    4    3    0.000534    0.000005
    5   -1   -2    5    3   -0.000042   -0.000016
    5   -1   -2    6    3   -0.000084   -0.000035
    5   -1   -2    7    3    0.000627    0.000026
    5   -1   -2    8    3   -0.000024    0.000048
    5   -1   -2    1    4    0.000096    0.000004
    5   -1   -2    2    4    0.000309   -0.000019
    5   -1   -2    3    4   -0.000564    0.000046
    5   -1   -2    4    4    0.000938    0.000017
    5   -1   -2    5    4   -0.000431   -0.000013
    5   -1   -2    6    4    0.000697   -0.000025
    5   -1   -2    7    4   -0.000088    0.000031
    5   -1   -2    8    4    0.000248    0.000034
    5   -1   -2    1    5    0.000332    0.000027
    5   -1   -2    2    5    0.000482    0.000032
    5   -1   -2    3    5   -0.000448    0.000007
    5   -1   -2    4    5   -0.000612   -0.000002
    5   -1   -2    5    5   -0.000237   -0.000002
    5   -1   -2    6    5   -0.000268    0.000024
    5   -1   -2    7    5   -0.000619    0.000015
    5   -1   -2    8    5   -0.000051   -0.000023
    5   -1   -2    1    6   -0.000480   -0.000013
    5   -1   -2    2    6   -0.000431   -0.000023
    5   -1   -2    3    6    0.000032   -0.000013
    5   -1   -2    4    6    0.000332    0.000005
    5   -1   -2    5    6   -0.000381    0.000012
    5   -1   -2    6    6    0.000316   -0.000008
    5   -1   -2    7    6   -0.000269   -0.000006
    5   -1   -2    8    6    0.000339   -0.000002
    5   -1   -2    1    7    0.000704    0.000018
    5   -1   -2    2    7    0.000018    0.000014
    5   -1   -2    3    7   -0.002455   -0.000005
    5   -1   -2    4    7    0.001534    0.000022
    5   -1   -2    5    7   -0.000519   -0.000028
    5   -1   -2    6    7   -0.000272   -0.000003
    5   -1   -2    7    7    0.000014   -0.000007
    5   -1   -2    8    7   -0.000516    0.000041
    5   -1   -2    1    8    0.000432   -0.000026
    5   -1   -2    2    8    0.000334   -0.000025
    5   -1   -2    3    8    0.001653    0.000022
    5   -1   -2    4    8   -0.000939   -0.000003
    5   -1   -2    5    8    0.000136   -0.000005
    5   -1   -2    6    8   -0.000195   -0.000019
    5   -1   -2    7    8    0.000570   -0.000002
    5   -1   -2    8    8    0.000934    0.000017
    5   -1   -1    1    1    0.000847   -0.000000
    5   -1   -1    2    1   -0.000387   -0.000003
    5   -1   -1    3    1   -0.000012    0.000015
    5   -1   -1    4    1   -0.000434    0.000008
    5   -1   -1    5    1    0.000637   -0.000034
    5   -1   -1    6    1   -0.000479    0.000019
    5   -1   -1    7    1    0.000195   -0.000038
    5   -1   -1    8    1   -0.000497    0.000038
    5   -1   -1    1    2   -0.000396    0.000003
    5   -1   -1    2    2   -0.000624    0.000018
    5   -1   -1    3    2   -0.000010   -0.000013
    5   -1   -1    4    2   -0.001242   -0.000006
    5   -1   -1    5    2    0.000437   -0.000006
    5   -1   -1    6    2   -0.001472    0.000014
    5   -1   -1    7    2    0.000244   -0.000052
    5   -1   -1    8    2   -0.000440    0.000018
    5   -1   -1    1    3    0.000002   -0.000015
    5   -1   -1    2    3    0.000002   -0.000027
    5   -1   -1    3    3    0.000812   -0.000023
    5   -1   -1    4    3   -0.000002    0.000012
    5   -1   -1    5    3   -0.000173   -0.000014
    5   -1   -1    6    3    0.000180   -0.000014
    5   -1   -1    7    3    0.000353   -0.000017
    5   -1   -1    8    3    0.000220    0.000024
    5   -1   -1    1    4   -0.000454   -0.000013
    5   -1   -1    2    4   -0.001251   -0.000021
    5   -1   -1    3    4   -0.000012    0.000024
    5   -1   -1    4    4   -0.000687    0.000009
    5   -1   -1    5    4    0.000472   -0.000024
    5   -1   -1    6    4   -0.000433    0.000008
    5   -1   -1    7    4    0.000185    0.000006
    5   -1   -1    8    4   -0.001508    0.000014
    5   -1   -1    1    5    0.001138    0.000041
    5   -1   -1    2    5    0.000916    0.000031
    5   -1   -1    3    5   -0.000631    0.000030
    5   -1   -1    4    5    0.000927    0.000013
    5   -1   -1    5    5    0.000868   -0.000004
    5   -1   -1    6    5    0.000381   -0.000009
    5   -1   -1    7    5    0.000022    0.000058
    5   -1   -1    8    5    0.000431    0.000009
    5   -1   -1    1    6   -0.000974   -0.000029
    5   -1   -1    2    6   -0.000650   -0.000023
    5   -1   -1    3    6    0.000474   -0.000019
    5   -1   -1    4    6   -0.001272   -0.000006
    5   -1   -1    5    6    0.000363    0.000010
    5   -1   -1    6    6   -0.000630    0.000018
    5   -1   -1    7    6    0.000042   -0.000041
    5   -1   -1    8    6   -0.001234   -0.000023
    5   -1   -1    1    7    0.000893    0.000034
    5   -1   -1    2    7    0.000451    0.000007
    5   -1   -1    3    7   -0.001823   -0.000035
    5   -1   -1    4    7    0.000458    0.000047
    5   -1   -1    5    7    0.000038   -0.000033
    5   -1   -1    6    7   -0.000016    0.000011
    5   -1   -1    7    7    0.000801   -0.000020
    5   -1   -1    8    7    0.000004    0.000037
    5   -1   -1    1    8   -0.000991   -0.000029
    5   -1   -1    2    8   -0.001268   -0.000016
    5   -1   -1    3    8    0.000392    0.000005
    5   -1   -1    4    8   -0.000672   -0.000021
    5   -1   -1    5    8    0.000420   -0.000005
    5   -1   -1    6    8   -0.001224   -0.000004
    5   -1   -1    7    8   -0.000030   -0.000020
    5   -1   -1    8    8   -0.000688    0.000009
    5    0   -3    1    1   -0.000737    0.000012
    5    0   -3    2    1    0.000135   -0.000002
    5    0   -3    3    1   -0.000399    0.000022
    5    0   -3    4    1   -0.000447    0.000013
    5    0   -3    5    1   -0.000658    0.000001
    5    0   -3    6    1   -0.000116   -0.000011
    5    0   -3    7    1   -0.000058    0.000014
    5    0   -3    8    1   -0.000281    0.000008
    5    0   -3    1    2    0.000057   -0.000020
    5    0   -3    2    2    0.000389   -0.000009
    5    0   -3    3    2    0.000562   -0.000005
    5    0   -3    4    2    0.000129   -0.000005
    5    0   -3    5    2    0.000096    0.000013
    5    0   -3    6    2    0.000640    0.000006
    5    0   -3    7    2    0.000100   -0.000025
    5    0   -3    8    2    0.000303   -0.000007
    5    0   -3    1    3   -0.000664    0.000010
    5    0   -3    2    3    0.000632    0.000009
    5    0   -3    3    3    0.000153   -0.000024
    5    0   -3    4    3   -0.000249    0.000017
    5    0   -3    5    3   -0.000036    0.000008
    5    0   -3    6    3    0.000016   -0.000035
    5    0   -3    7    3    0.000452   -0.000001
    5    0   -3    8    3    0.000026    0.000037
    5    0   -3    1    4    0.000367    0.000032
    5    0   -3    2    4    0.000434    0.000014
    5    0   -3    3    4    0.000906    0.000043
    5    0   -3    4    4   -0.000407    0.000013
    5    0   -3    5    4    0.000297   -0.000007
    5    0   -3    6    4    0.000287   -0.000016
    5    0   -3    7    4    0.000057    0.000050
    5    0   -3    8    4    0.000532    0.000020
    5    0   -3    1    5   -0.000843    0.000014
    5    0   -3    2    5   -0.000134    0.000008
    5    0   -3    3    5   -0.000845    0.000015
    5    0   -3    4    5    0.000355   -0.000002
    5    0   -3    5    5   -0.000847   -0.000021
    5    0   -3    6    5   -0.000102    0.000043
    5    0   -3    7    5    0.000540   -0.000002
    5    0   -3    8    5   -0.000471   -0.000017
    5    0   -3    1    6    0.000030   -0.000018
    5    0   -3    2    6    0.001017   -0.000006
    5    0   -3    3    6    0.001132   -0.000052
    5    0   -3    4    6   -0.000745   -0.000006
    5    0   -3    5    6   -0.000201    0.000026
    5    0   -3    6    6    0.000376   -0.000012
    5    0   -3    7    6    0.000619   -0.000012
    5    0   -3    8    6    0.000409   -0.000012
    5    0   -3    1    7    0.000511    0.000038
    5    0   -3    2    7    0.001146   -0.000007
    5    0   -3    3    7    0.002226    0.000006
    5    0   -3    4    7   -0.001206    0.000053
    5    0   -3    5    7    0.000310   -0.000028
    5    0   -3    6    7    0.000528    0.000006
    5    0   -3    7    7    0.000291    0.000007
    5    0   -3    8    7    0.000887    0.000039
    5    0   -3    1    8   -0.000253   -0.000000
    5    0   -3    2    8   -0.000800   -0.000003
    5    0   -3    3    8   -0.001283    0.000048
    5    0   -3    4    8    0.001414    0.000003
    5    0   -3    5    8    0.000483    0.000001
    5    0   -3    6    8    0.000105   -0.000029
    5    0   -3    7    8   -0.000204    0.000029
    5    0   -3    8    8   -0.000414    0.000020
    5    0   -2    1    1    0.000792    0.000007
    5    0   -2    2    1    0.000159   -0.000015
    5    0   -2    3    1   -0.000016    0.000015
    5    0   -2    4    1   -0.000185    0.000018
    5    0   -2    5    1    0.001676   -0.000001
    5    0   -2    6    1   -0.000954   -0.000011
    5    0   -2    7    1    0.000807   -0.000001
    5    0   -2    8    1   -0.000411    0.000021
    5    0   -2    1    2    0.000519   -0.000017
    5    0   -2    2    2   -0.001054   -0.000004
    5    0   -2    3    2   -0.000002   -0.000016
    5    0   -2    4    2    0.000588   -0.000014
    5    0   -2    5    2    0.000902    0.000022
    5    0   -2    6    2    0.000086   -0.000002
    5    0   -2    7    2    0.000169   -0.000045
    5    0   -2    8    2   -0.001056   -0.000005
    5    0   -2    1    3   -0.000029    0.000001
    5    0   -2    2    3   -0.000023   -0.000029
    5    0   -2    3    3   -0.000024   -0.000021
    5    0   -2    4    3    0.000049    0.000036
    5    0   -2    5    3   -0.000597   -0.000006
    5    0   -2    6    3    0.000045   -0.000018
    5    0   -2    7    3   -0.000250   -0.000009
    5    0   -2    8    3    0.000076    0.000031
    5    0   -2    1    4   -0.000824    0.000020
    5    0   -2    2    4   -0.000777   -0.000015
    5    0   -2    3    4    0.000078    0.000045
    5    0   -2    4    4   -0.000303    0.000034
    5    0   -2    5    4    0.000414   -0.000034
    5    0   -2    6    4   -0.001066    0.000002
    5    0   -2    7    4    0.000078    0.000045
    5    0   -2    8    4    0.000054    0.000023
    5    0   -2    1    5    0.001005    0.000016
    5    0   -2    2    5    0.000528    0.000033
    5    0   -2    3    5   -0.000056   -0.000006
    5    0   -2    4    5    0.000209   -0.000017
    5    0   -2    5    5    0.000781    0.000003
    5    0   -2    6    5   -0.000507    0.000016
    5    0   -2    7    5    0.000114    0.000003
    5    0   -2    8    5    0.000798   -0.000015
    5    0   -2    1    6   -0.000422   -0.000011
    5    0   -2    2    6   -0.000550   -0.000012
    5    0   -2    3    6   -0.000791   -0.000015
    5    0   -2    4    6   -0.000453    0.000002
    5    0   -2    5    6   -0.000173    0.000015
    5    0   -2    6    6   -0.001055   -0.000002
    5    0   -2    7    6   -0.000026   -0.000005
    5    0   -2    8    6   -0.000766   -0.000015
    5    0   -2    1    7    0.000146    0.000015
    5    0   -2    2    7   -0.000809   -0.000017
    5    0   -2    3    7   -0.000122   -0.000036
    5    0   -2    4    7    0.001254    0.000042
    5    0   -2    5    7    0.000116   -0.000021
    5    0   -2    6    7   -0.000076    0.000026
    5    0   -2    7    7   -0.000003   -0.000022
    5    0   -2    8    7    0.000143    0.000001
    5    0   -2    1    8   -0.000361   -0.000005
    5    0   -2    2    8   -0.000437   -0.000018
    5    0   -2    3    8    0.001212    0.000039
    5    0   -2    4    8   -0.000618    0.000009
    5    0   -2    5    8    0.000188   -0.000011
    5    0   -2    6    8    0.000579   -0.000025
    5    0   -2    7    8    0.000039    0.000020
    5    0   -2    8    8   -0.000312    0.000033
    5    1   -3    1    1    0.000421    0.000014
    5    1   -3    2    1   -0.000243    0.000006
    5    1   -3    3    1   -0.000028   -0.000007
    5    1   -3    4    1    0.000623    0.000009
    5    1   -3    5    1    0.000577    0.000030
    5    1   -3    6    1    0.000307   -0.000018
    5    1   -3    7    1   -0.000408   -0.000007
    5    1   -3    8    1   -0.000045   -0.000008
    5    1   -3    1    2   -0.000071   -0.000007
    5    1   -3    2    2    0.000738   -0.000004
    5    1   -3    3    2    0.000001    0.000001
    5    1   -3    4    2   -0.000616   -0.000004
    5    1   -3    5    2   -0.000331    0.000013
    5    1   -3    6    2    0.000395   -0.000015
    5    1   -3    7    2    0.000110    0.000010
    5    1   -3    8    2    0.000235    0.000008
    5    1   -3    1    3    0.000009    0.000010
    5    1   -3    2    3    0.000030   -0.000019
    5    1   -3    3    3    0.000456   -0.000029
    5    1   -3    4    3   -0.000060    0.000036
    5    1   -3    5    3    0.000460    0.000058
    5    1   -3    6    3    0.000108    0.000014
    5    1   -3    7    3    0.000220   -0.000017
    5    1   -3    8    3    0.000375    0.000002
    5    1   -3    1    4   -0.000358    0.000024
    5    1   -3    2    4    0.000084    0.000011
    5    1   -3    3    4   -0.000001    0.000010
    5    1   -3    4    4   -0.000568    0.000017
    5    1   -3    5    4    0.000034   -0.000008
    5    1   -3    6    4    0.000230    0.000010
    5    1   -3    7    4    0.000362    0.000029
    5    1   -3    8    4   -0.001057   -0.000010
    5    1   -3    1    5    0.000986   -0.000006
    5    1   -3    2    5    0.000446    0.000009
    5    1   -3    3    5   -0.000414   -0.000008
    5    1   -3    4    5    0.000843   -0.000016
    5    1   -3    5    5    0.000410   -0.000001
    5    1   -3    6    5    0.000083    0.000015
    5    1   -3    7    5   -0.000014   -0.000015
    5    1   -3    8    5    0.000356   -0.000001
    5    1   -3    1    6   -0.000582   -0.000014
    5    1   -3    2    6   -0.000658    0.000001
    5    1   -3    3    6    0.001371   -0.000034
    5    1   -3    4    6   -0.000111   -0.000012
    5    1   -3    5    6    0.000240    0.000006
    5    1   -3    6    6    0.000739   -0.000008
    5    1   -3    7    6    0.000088   -0.000018
    5    1   -3    8    6    0.000079   -0.000014
    5    1   -3    1    7    0.000481    0.000009
    5    1   -3    2    7    0.001358   -0.000036
    5    1   -3    3    7   -0.000104   -0.000021
    5    1   -3    4    7   -0.000909    0.000039
    5    1   -3    5    7    0.000037    0.000003
    5    1   -3    6    7   -0.000001    0.000015
    5    1   -3    7    7    0.000461   -0.000008
    5    1   -3    8    7    0.000019   -0.000007
    5    1   -3    1    8   -0.000756    0.000025
    5    1   -3    2    8   -0.000146    0.000004
    5    1   -3    3    8   -0.001010    0.000043
    5    1   -3    4    8   -0.000263    0.000016
    5    1   -3    5    8   -0.000608   -0.000008
    5    1   -3    6    8   -0.000629   -0.000008
    5    1   -3    7    8   -0.000162    0.000040
    5    1   -3    8    8   -0.000564    0.000017
