 
             +---------------------------------------------------+
             |                                                   |
             |                   WANNIER90                       |
             |                                                   |
             +---------------------------------------------------+
             |                                                   |
             |        Welcome to the Maximally-Localized         |
             |        Generalized Wannier Functions code         |
             |            http://www.wannier.org                 |
             |                                                   |
             |                                                   |
             |  Wannier90 Developer Group:                       |
             |    Giovanni Pizzi    (EPFL)                       |
             |    Valerio Vitale    (Cambridge)                  |
             |    David Vanderbilt  (Rutgers University)         |
             |    Nicola Marzari    (EPFL)                       |
             |    Ivo Souza         (Universidad del Pais Vasco) |
             |    Arash A. Mostofi  (Imperial College London)    |
             |    Jonathan R. Yates (University of Oxford)       |
             |                                                   |
             |  For the full list of Wannier90 3.x authors,      |
             |  please check the code documentation and the      |
             |  README on the GitHub page of the code            |
             |                                                   |
             |                                                   |
             |  Please cite                                      |
             |                                                   |
             |  [ref] "Wannier90 as a community code:            |
             |        new features and applications",            |
             |        G. Pizzi et al., J. Phys. Cond. Matt. 32,  |
             |        165902 (2020).                             |
             |        http://doi.org/10.1088/1361-648X/ab51ff    |
             |                                                   |
             |  in any publications arising from the use of      |
             |  this code. For the method please cite            |
             |                                                   |
             |  [ref] "Maximally Localized Generalised Wannier   |
             |         Functions for Composite Energy Bands"     |
             |         N. Marzari and D. Vanderbilt              |
             |         Phys. Rev. B 56 12847 (1997)              |
             |                                                   |
             |  [ref] "Maximally Localized Wannier Functions     |
             |         for Entangled Energy Bands"               |
             |         I. Souza, N. Marzari and D. Vanderbilt    |
             |         Phys. Rev. B 65 035109 (2001)             |
             |                                                   |
             |                                                   |
             | Copyright (c) 1996-2020                           |
             |        The Wannier90 Developer Group and          |
             |        individual contributors                    |
             |                                                   |
             |      Release: 3.1.0        5th March    2020      |
             |                                                   |
             | This program is free software; you can            |
             | redistribute it and/or modify it under the terms  |
             | of the GNU General Public License as published by |
             | the Free Software Foundation; either version 2 of |
             | the License, or (at your option) any later version|
             |                                                   |
             | This program is distributed in the hope that it   |
             | will be useful, but WITHOUT ANY WARRANTY; without |
             | even the implied warranty of MERCHANTABILITY or   |
             | FITNESS FOR A PARTICULAR PURPOSE. See the GNU     |
             | General Public License for more details.          |
             |                                                   |
             | You should have received a copy of the GNU General|
             | Public License along with this program; if not,   |
             | write to the Free Software Foundation, Inc.,      |
             | 675 Mass Ave, Cambridge, MA 02139, USA.           |
             |                                                   |
             +---------------------------------------------------+
             |    Execution started on 19Apr2025 at 14:15:45     |
             +---------------------------------------------------+
 
 ******************************************************************************
 * -> Using CODATA 2006 constant values                                       *
 *    (http://physics.nist.gov/cuu/Constants/index.html)                      *
 * -> Using Bohr value from CODATA                                            *
 ******************************************************************************
 

 Running in serial (with serial executable)
 
                                    ------
                                    SYSTEM
                                    ------
 
                              Lattice Vectors (Ang)
                    a_1     3.866975   0.000000   0.000000
                    a_2     1.933487   3.348898   0.000000
                    a_3     1.933487   1.116299   3.157372
 
                   Unit Cell Volume:      40.88829  (Ang^3)
 
                        Reciprocal-Space Vectors (Ang^-1)
                    b_1     1.624832  -0.938097  -0.663335
                    b_2     0.000000   1.876195  -0.663335
                    b_3     0.000000   0.000000   1.990005
  
 *----------------------------------------------------------------------------*
 |   Site       Fractional Coordinate          Cartesian Coordinate (Ang)     |
 +----------------------------------------------------------------------------+
 | Si   1   0.75000   0.75000   0.75000   |    5.80046   3.34890   2.36803    |
 | Si   2   0.50000   0.50000   0.50000   |    3.86697   2.23260   1.57869    |
 *----------------------------------------------------------------------------*
                                ------------
                                K-POINT GRID
                                ------------
  
             Grid size =  8 x  8 x  8      Total points =  512
  
  
 *---------------------------------- MAIN ------------------------------------*
 |  Number of Wannier Functions               :                 8             |
 |  Number of Objective Wannier Functions     :                 8             |
 |  Number of input Bloch states              :                16             |
 |  Output verbosity (1=low, 5=high)          :                 1             |
 |  Timing Level (1=low, 5=high)              :                 1             |
 |  Optimisation (0=memory, 3=speed)          :                 3             |
 |  Length Unit                               :               Ang             |
 |  Post-processing setup (write *.nnkp)      :                 F             |
 |  Using Gamma-only branch of algorithms     :                 F             |
 *----------------------------------------------------------------------------*
 *------------------------------- WANNIERISE ---------------------------------*
 |  Total number of iterations                :               100             |
 |  Number of CG steps before reset           :                 5             |
 |  Trial step length for line search         :             2.000             |
 |  Convergence tolerence                     :         0.100E-09             |
 |  Convergence window                        :                -1             |
 |  Iterations between writing output         :                 1             |
 |  Iterations between backing up to disk     :               100             |
 |  Write r^2_nm to file                      :                 F             |
 |  Write xyz WF centres to file              :                 F             |
 |  Write on-site energies <0n|H|0n> to file  :                 F             |
 |  Use guiding centre to control phases      :                 F             |
 |  Use phases for initial projections        :                 F             |
 *----------------------------------------------------------------------------*
 *------------------------------- DISENTANGLE --------------------------------*
 |  Using band disentanglement                :                 T             |
 |  Total number of iterations                :               200             |
 |  Mixing ratio                              :             0.500             |
 |  Convergence tolerence                     :         1.000E-10             |
 |  Convergence window                        :                 3             |
 *----------------------------------------------------------------------------*
 *-------------------------------- PLOTTING ----------------------------------*
 |  Plotting Hamiltonian in WF basis          :                 T             |
 *----------------------------------------------------------------------------*
 Time to read parameters        0.049 (sec)

 *---------------------------------- K-MESH ----------------------------------*
 +----------------------------------------------------------------------------+
 |                    Distance to Nearest-Neighbour Shells                    |
 |                    ------------------------------------                    |
 |          Shell             Distance (Ang^-1)          Multiplicity         |
 |          -----             -----------------          ------------         |
 |             1                   0.248751                      8            |
 |             2                   0.287232                      6            |
 |             3                   0.406208                     12            |
 |             4                   0.476321                     24            |
 |             5                   0.497501                      8            |
 |             6                   0.574465                      6            |
 |             7                   0.626009                     24            |
 |             8                   0.642271                     24            |
 |             9                   0.703573                     24            |
 |            10                   0.746252                     32            |
 |            11                   0.812416                     12            |
 |            12                   0.849645                     48            |
 |            13                   0.861697                     30            |
 |            14                   0.908309                     24            |
 |            15                   0.941755                     24            |
 |            16                   0.952642                     24            |
 |            17                   0.995003                      8            |
 |            18                   1.025625                     48            |
 |            19                   1.035631                     24            |
 |            20                   1.074726                     48            |
 |            21                   1.103137                     72            |
 |            22                   1.148930                      6            |
 |            23                   1.175550                     24            |
 |            24                   1.184290                     48            |
 |            25                   1.218624                     36            |
 |            26                   1.243753                     56            |
 |            27                   1.252017                     24            |
 |            28                   1.284543                     24            |
 |            29                   1.308406                     72            |
 |            30                   1.316265                     48            |
 |            31                   1.347240                     24            |
 |            32                   1.370012                     48            |
 |            33                   1.407146                     24            |
 |            34                   1.428964                     72            |
 |            35                   1.436162                     30            |
 |            36                   1.464604                     72            |
 +----------------------------------------------------------------------------+
 | The b-vectors are chosen automatically                                     |
 | The following shells are used:   1                                         |
 +----------------------------------------------------------------------------+
 |                        Shell   # Nearest-Neighbours                        |
 |                        -----   --------------------                        |
 |                          1               8                                 |
 +----------------------------------------------------------------------------+
 | Completeness relation is fully satisfied [Eq. (B1), PRB 56, 12847 (1997)]  |
 +----------------------------------------------------------------------------+
 |                  b_k Vectors (Ang^-1) and Weights (Ang^2)                  |
 |                  ----------------------------------------                  |
 |            No.         b_k(x)      b_k(y)      b_k(z)        w_b           |
 |            ---        --------------------------------     --------        |
 |             1         0.000000    0.000000    0.248751     6.060422        |
 |             2         0.000000    0.234524   -0.082917     6.060422        |
 |             3         0.203104   -0.117262   -0.082917     6.060422        |
 |             4         0.203104    0.117262    0.082917     6.060422        |
 |             5         0.000000    0.000000   -0.248751     6.060422        |
 |             6         0.000000   -0.234524    0.082917     6.060422        |
 |             7        -0.203104    0.117262    0.082917     6.060422        |
 |             8        -0.203104   -0.117262   -0.082917     6.060422        |
 +----------------------------------------------------------------------------+
 |                           b_k Directions (Ang^-1)                          |
 |                           -----------------------                          |
 |            No.           x           y           z                         |
 |            ---        --------------------------------                     |
 |             1         0.000000    0.000000    0.248751                     |
 |             2         0.000000    0.234524   -0.082917                     |
 |             3         0.203104   -0.117262   -0.082917                     |
 |             4         0.203104    0.117262    0.082917                     |
 +----------------------------------------------------------------------------+
  
 Time to get kmesh              0.211 (sec)
 *============================================================================*
 |                              MEMORY ESTIMATE                               |
 |         Maximum RAM allocated during each phase of the calculation         |
 *============================================================================*
 |                        Disentanglement           22.92 Mb                  |
 |                            Wannierise:           12.52 Mb                  |
 |                          plot_wannier:           12.52 Mb                  |
 *----------------------------------------------------------------------------*
  
 Starting a new Wannier90 calculation ...


 Reading overlaps from aiida.mmn    :  Created on 19Apr2025 at 14:15:21

 Reading projections from aiida.amn :  Created on 19Apr2025 at 14:15:16

 Time to read overlaps          1.095 (sec)

 *------------------------------- DISENTANGLE --------------------------------*
 +----------------------------------------------------------------------------+
 |                              Energy  Windows                               |
 |                              ---------------                               |
 |                   Outer:   -5.79895  to   28.79899  (eV)                   |
 |                   Inner:   -5.79895  to    7.03091  (eV)                   |
 +----------------------------------------------------------------------------+
   Number of target bands to extract:    8

                   Unitarised projection of Wannier functions                  
                   ------------------------------------------                  
   A_mn = <psi_m|g_n> --> S = A.A^+ --> U = S^-1/2.A
   In dis_project... done
   Using an inner window (linner = T)
   In dis_proj_froz... done

                   Extraction of optimally-connected subspace                  
                   ------------------------------------------                  
 +---------------------------------------------------------------------+<-- DIS
 |  Iter     Omega_I(i-1)      Omega_I(i)      Delta (frac.)    Time   |<-- DIS
 +---------------------------------------------------------------------+<-- DIS
       1      15.34730929      13.32933970       1.514E-01      0.00    <-- DIS
       2      13.97089586      12.73234568       9.728E-02      0.04    <-- DIS
       3      13.23194227      12.32625410       7.348E-02      0.08    <-- DIS
       4      12.67627169      12.01525690       5.501E-02      0.12    <-- DIS
       5      12.25866690      11.76839381       4.166E-02      0.16    <-- DIS
       6      11.93893413      11.56769848       3.209E-02      0.21    <-- DIS
       7      11.68863488      11.40157391       2.518E-02      0.25    <-- DIS
       8      11.48842951      11.26212265       2.009E-02      0.29    <-- DIS
       9      11.32519248      11.14374255       1.628E-02      0.33    <-- DIS
      10      11.18990277      11.04232395       1.336E-02      0.37    <-- DIS
      11      11.07623538      10.95476676       1.109E-02      0.41    <-- DIS
      12      10.97964992      10.87867765       9.282E-03      0.45    <-- DIS
      13      10.89680585      10.81217314       7.828E-03      0.49    <-- DIS
      14      10.82518602      10.75374730       6.643E-03      0.53    <-- DIS
      15      10.76285175      10.70218007       5.669E-03      0.57    <-- DIS
      16      10.70828075      10.65647219       4.862E-03      0.62    <-- DIS
      17      10.66025774      10.61579762       4.188E-03      0.66    <-- DIS
      18      10.61779892      10.57946827       3.623E-03      0.70    <-- DIS
      19      10.58009862      10.54690712       3.147E-03      0.74    <-- DIS
      20      10.54649063      10.51762749       2.744E-03      0.78    <-- DIS
      21      10.51641964      10.49121686       2.402E-03      0.82    <-- DIS
      22      10.48941961      10.46732395       2.111E-03      0.86    <-- DIS
      23      10.46509716      10.44564843       1.862E-03      0.90    <-- DIS
      24      10.44311855      10.42593252       1.648E-03      0.95    <-- DIS
      25      10.42319938      10.40795420       1.465E-03      0.99    <-- DIS
      26      10.40509630      10.39152160       1.306E-03      1.03    <-- DIS
      27      10.38860030      10.37646838       1.169E-03      1.07    <-- DIS
      28      10.37353126      10.36264986       1.050E-03      1.11    <-- DIS
      29      10.35973342      10.34993981       9.462E-04      1.15    <-- DIS
      30      10.34707163      10.33822780       8.554E-04      1.19    <-- DIS
      31      10.33542831      10.32741690       7.757E-04      1.23    <-- DIS
      32      10.32470078      10.31742178       7.055E-04      1.27    <-- DIS
      33      10.31479916      10.30816713       6.434E-04      1.32    <-- DIS
      34      10.30564449      10.29958624       5.882E-04      1.36    <-- DIS
      35      10.29716723      10.29161989       5.390E-04      1.40    <-- DIS
      36      10.28930592      10.28421536       4.950E-04      1.44    <-- DIS
      37      10.28200609      10.27732554       4.554E-04      1.48    <-- DIS
      38      10.27521933      10.27090824       4.197E-04      1.52    <-- DIS
      39      10.26890248      10.26492560       3.874E-04      1.56    <-- DIS
      40      10.26301695      10.25934348       3.581E-04      1.60    <-- DIS
      41      10.25752810      10.25413110       3.313E-04      1.65    <-- DIS
      42      10.25240483      10.24926057       3.068E-04      1.69    <-- DIS
      43      10.24761905      10.24470657       2.843E-04      1.73    <-- DIS
      44      10.24314537      10.24044608       2.636E-04      1.77    <-- DIS
      45      10.23896077      10.23645810       2.445E-04      1.81    <-- DIS
      46      10.23504431      10.23272344       2.268E-04      1.85    <-- DIS
      47      10.23137691      10.22922452       2.104E-04      1.89    <-- DIS
      48      10.22794114      10.22594519       1.952E-04      1.94    <-- DIS
      49      10.22472103      10.22287062       1.810E-04      1.98    <-- DIS
      50      10.22170192      10.21998714       1.678E-04      2.02    <-- DIS
      51      10.21887035      10.21728210       1.554E-04      2.06    <-- DIS
      52      10.21621389      10.21474385       1.439E-04      2.10    <-- DIS
      53      10.21372107      10.21236159       1.331E-04      2.14    <-- DIS
      54      10.21138130      10.21012527       1.230E-04      2.18    <-- DIS
      55      10.20918475      10.20802562       1.136E-04      2.22    <-- DIS
      56      10.20712230      10.20605396       1.047E-04      2.27    <-- DIS
      57      10.20518550      10.20420226       9.636E-05      2.31    <-- DIS
      58      10.20336646      10.20246302       8.855E-05      2.35    <-- DIS
      59      10.20165784      10.20082923       8.123E-05      2.39    <-- DIS
      60      10.20005282      10.19929437       7.436E-05      2.43    <-- DIS
      61      10.19854501      10.19785235       6.792E-05      2.47    <-- DIS
      62      10.19712844      10.19649746       6.188E-05      2.51    <-- DIS
      63      10.19579754      10.19522436       5.622E-05      2.55    <-- DIS
      64      10.19454710      10.19402808       5.091E-05      2.60    <-- DIS
      65      10.19337223      10.19290392       4.594E-05      2.64    <-- DIS
      66      10.19226835      10.19184752       4.129E-05      2.68    <-- DIS
      67      10.19123119      10.19085476       3.694E-05      2.72    <-- DIS
      68      10.19025671      10.18992180       3.287E-05      2.76    <-- DIS
      69      10.18934115      10.18904503       2.906E-05      2.80    <-- DIS
      70      10.18848097      10.18822105       2.551E-05      2.84    <-- DIS
      71      10.18767284      10.18744668       2.220E-05      2.88    <-- DIS
      72      10.18691363      10.18671894       1.911E-05      2.93    <-- DIS
      73      10.18620042      10.18603502       1.624E-05      2.97    <-- DIS
      74      10.18553045      10.18539229       1.356E-05      3.01    <-- DIS
      75      10.18490113      10.18478828       1.108E-05      3.05    <-- DIS
      76      10.18431002      10.18422065       8.776E-06      3.09    <-- DIS
      77      10.18375484      10.18368722       6.641E-06      3.13    <-- DIS
      78      10.18323344      10.18318594       4.664E-06      3.17    <-- DIS
      79      10.18274378      10.18271488       2.838E-06      3.21    <-- DIS
      80      10.18228397      10.18227223       1.154E-06      3.26    <-- DIS
      81      10.18185222      10.18185627      -3.979E-07      3.30    <-- DIS
      82      10.18144684      10.18146541      -1.824E-06      3.34    <-- DIS
      83      10.18106625      10.18109814      -3.132E-06      3.38    <-- DIS
      84      10.18070897      10.18075305      -4.330E-06      3.42    <-- DIS
      85      10.18037358      10.18042879      -5.423E-06      3.46    <-- DIS
      86      10.18005878      10.18012413      -6.419E-06      3.50    <-- DIS
      87      10.17976332      10.17983787      -7.323E-06      3.54    <-- DIS
      88      10.17948605      10.17956892      -8.141E-06      3.59    <-- DIS
      89      10.17922585      10.17931623      -8.879E-06      3.63    <-- DIS
      90      10.17898170      10.17907883      -9.542E-06      3.67    <-- DIS
      91      10.17875264      10.17885579      -1.013E-05      3.71    <-- DIS
      92      10.17853774      10.17864626      -1.066E-05      3.75    <-- DIS
      93      10.17833616      10.17844941      -1.113E-05      3.79    <-- DIS
      94      10.17814708      10.17826448      -1.153E-05      3.83    <-- DIS
      95      10.17796975      10.17809076      -1.189E-05      3.87    <-- DIS
      96      10.17780345      10.17792756      -1.219E-05      3.92    <-- DIS
      97      10.17764751      10.17777427      -1.245E-05      3.96    <-- DIS
      98      10.17750130      10.17763026      -1.267E-05      4.00    <-- DIS
      99      10.17736424      10.17749499      -1.285E-05      4.04    <-- DIS
     100      10.17723575      10.17736793      -1.299E-05      4.08    <-- DIS
     101      10.17711532      10.17724859      -1.309E-05      4.12    <-- DIS
     102      10.17700246      10.17713648      -1.317E-05      4.16    <-- DIS
     103      10.17689670      10.17703119      -1.321E-05      4.20    <-- DIS
     104      10.17679761      10.17693229      -1.323E-05      4.25    <-- DIS
     105      10.17670477      10.17683940      -1.323E-05      4.29    <-- DIS
     106      10.17661781      10.17675216      -1.320E-05      4.33    <-- DIS
     107      10.17653636      10.17667022      -1.315E-05      4.37    <-- DIS
     108      10.17646009      10.17659326      -1.309E-05      4.41    <-- DIS
     109      10.17638866      10.17652099      -1.300E-05      4.45    <-- DIS
     110      10.17632180      10.17645311      -1.290E-05      4.49    <-- DIS
     111      10.17625920      10.17638936      -1.279E-05      4.53    <-- DIS
     112      10.17620062      10.17632949      -1.266E-05      4.58    <-- DIS
     113      10.17614580      10.17627326      -1.253E-05      4.62    <-- DIS
     114      10.17609450      10.17622046      -1.238E-05      4.66    <-- DIS
     115      10.17604651      10.17617088      -1.222E-05      4.70    <-- DIS
     116      10.17600163      10.17612431      -1.206E-05      4.74    <-- DIS
     117      10.17595965      10.17608058      -1.188E-05      4.78    <-- DIS
     118      10.17592040      10.17603952      -1.171E-05      4.82    <-- DIS
     119      10.17588371      10.17600096      -1.152E-05      4.86    <-- DIS
     120      10.17584942      10.17596475      -1.133E-05      4.91    <-- DIS
     121      10.17581737      10.17593074      -1.114E-05      4.95    <-- DIS
     122      10.17578743      10.17589881      -1.095E-05      4.99    <-- DIS
     123      10.17575946      10.17586883      -1.075E-05      5.03    <-- DIS
     124      10.17573334      10.17584068      -1.055E-05      5.07    <-- DIS
     125      10.17570896      10.17581424      -1.035E-05      5.11    <-- DIS
     126      10.17568620      10.17578942      -1.014E-05      5.15    <-- DIS
     127      10.17566496      10.17576611      -9.940E-06      5.19    <-- DIS
     128      10.17564514      10.17574422      -9.737E-06      5.24    <-- DIS
     129      10.17562666      10.17572367      -9.534E-06      5.28    <-- DIS
     130      10.17560942      10.17570438      -9.331E-06      5.32    <-- DIS
     131      10.17559336      10.17568626      -9.129E-06      5.36    <-- DIS
     132      10.17557839      10.17566925      -8.929E-06      5.40    <-- DIS
     133      10.17556445      10.17565327      -8.729E-06      5.44    <-- DIS
     134      10.17555146      10.17563828      -8.532E-06      5.48    <-- DIS
     135      10.17553937      10.17562419      -8.336E-06      5.52    <-- DIS
     136      10.17552812      10.17561097      -8.142E-06      5.57    <-- DIS
     137      10.17551766      10.17559856      -7.950E-06      5.61    <-- DIS
     138      10.17550793      10.17558691      -7.761E-06      5.65    <-- DIS
     139      10.17549889      10.17557596      -7.574E-06      5.69    <-- DIS
     140      10.17549049      10.17556569      -7.390E-06      5.73    <-- DIS
     141      10.17548269      10.17555604      -7.209E-06      5.77    <-- DIS
     142      10.17547545      10.17554699      -7.030E-06      5.81    <-- DIS
     143      10.17546874      10.17553848      -6.854E-06      5.85    <-- DIS
     144      10.17546251      10.17553050      -6.682E-06      5.89    <-- DIS
     145      10.17545675      10.17552301      -6.512E-06      5.94    <-- DIS
     146      10.17545141      10.17551597      -6.345E-06      5.98    <-- DIS
     147      10.17544647      10.17550936      -6.181E-06      6.02    <-- DIS
     148      10.17544190      10.17550316      -6.021E-06      6.06    <-- DIS
     149      10.17543768      10.17549734      -5.863E-06      6.10    <-- DIS
     150      10.17543378      10.17549187      -5.709E-06      6.14    <-- DIS
     151      10.17543019      10.17548674      -5.557E-06      6.18    <-- DIS
     152      10.17542687      10.17548192      -5.409E-06      6.22    <-- DIS
     153      10.17542383      10.17547739      -5.264E-06      6.27    <-- DIS
     154      10.17542102      10.17547315      -5.123E-06      6.31    <-- DIS
     155      10.17541845      10.17546916      -4.984E-06      6.35    <-- DIS
     156      10.17541608      10.17546542      -4.848E-06      6.39    <-- DIS
     157      10.17541392      10.17546190      -4.716E-06      6.43    <-- DIS
     158      10.17541194      10.17545860      -4.586E-06      6.47    <-- DIS
     159      10.17541012      10.17545551      -4.460E-06      6.51    <-- DIS
     160      10.17540847      10.17545260      -4.336E-06      6.55    <-- DIS
     161      10.17540697      10.17544987      -4.216E-06      6.60    <-- DIS
     162      10.17540561      10.17544730      -4.098E-06      6.64    <-- DIS
     163      10.17540437      10.17544490      -3.983E-06      6.68    <-- DIS
     164      10.17540325      10.17544264      -3.871E-06      6.72    <-- DIS
     165      10.17540224      10.17544052      -3.762E-06      6.76    <-- DIS
     166      10.17540133      10.17543853      -3.655E-06      6.80    <-- DIS
     167      10.17540052      10.17543666      -3.551E-06      6.84    <-- DIS
     168      10.17539980      10.17543490      -3.450E-06      6.88    <-- DIS
     169      10.17539915      10.17543326      -3.352E-06      6.93    <-- DIS
     170      10.17539858      10.17543171      -3.256E-06      6.97    <-- DIS
     171      10.17539808      10.17543026      -3.162E-06      7.01    <-- DIS
     172      10.17539765      10.17542890      -3.071E-06      7.05    <-- DIS
     173      10.17539727      10.17542762      -2.982E-06      7.09    <-- DIS
     174      10.17539695      10.17542642      -2.896E-06      7.13    <-- DIS
     175      10.17539668      10.17542529      -2.812E-06      7.17    <-- DIS
     176      10.17539645      10.17542423      -2.730E-06      7.21    <-- DIS
     177      10.17539627      10.17542324      -2.650E-06      7.26    <-- DIS
     178      10.17539612      10.17542230      -2.573E-06      7.30    <-- DIS
     179      10.17539601      10.17542143      -2.498E-06      7.34    <-- DIS
     180      10.17539594      10.17542061      -2.424E-06      7.38    <-- DIS
     181      10.17539589      10.17541983      -2.353E-06      7.42    <-- DIS
     182      10.17539587      10.17541911      -2.284E-06      7.46    <-- DIS
     183      10.17539588      10.17541843      -2.216E-06      7.50    <-- DIS
     184      10.17539591      10.17541779      -2.151E-06      7.54    <-- DIS
     185      10.17539595      10.17541719      -2.087E-06      7.58    <-- DIS
     186      10.17539602      10.17541663      -2.025E-06      7.63    <-- DIS
     187      10.17539611      10.17541610      -1.965E-06      7.67    <-- DIS
     188      10.17539620      10.17541561      -1.907E-06      7.71    <-- DIS
     189      10.17539632      10.17541514      -1.850E-06      7.75    <-- DIS
     190      10.17539644      10.17541470      -1.795E-06      7.79    <-- DIS
     191      10.17539658      10.17541429      -1.741E-06      7.83    <-- DIS
     192      10.17539672      10.17541391      -1.689E-06      7.87    <-- DIS
     193      10.17539687      10.17541355      -1.638E-06      7.91    <-- DIS
     194      10.17539703      10.17541321      -1.589E-06      7.95    <-- DIS
     195      10.17539720      10.17541289      -1.542E-06      8.00    <-- DIS
     196      10.17539737      10.17541259      -1.495E-06      8.04    <-- DIS
     197      10.17539755      10.17541231      -1.450E-06      8.08    <-- DIS
     198      10.17539773      10.17541204      -1.407E-06      8.12    <-- DIS
     199      10.17539792      10.17541180      -1.364E-06      8.16    <-- DIS
     200      10.17539810      10.17541156      -1.323E-06      8.20    <-- DIS

     <<< Warning: Maximum number of disentanglement iterations reached >>>
          <<< Disentanglement convergence criteria not satisfied >>>

        Final Omega_I    10.17541156 (Ang^2)

 +----------------------------------------------------------------------------+

 Time to disentangle bands      8.292 (sec)

 Writing checkpoint file aiida.chk... done

 
 *------------------------------- WANNIERISE ---------------------------------*
 +--------------------------------------------------------------------+<-- CONV
 | Iter  Delta Spread     RMS Gradient      Spread (Ang^2)      Time  |<-- CONV
 +--------------------------------------------------------------------+<-- CONV
 
 ------------------------------------------------------------------------------
 Initial State
  WF centre and spread    1  (  5.800514,  3.348890,  2.368046 )     1.76660393
  WF centre and spread    2  (  5.800211,  3.349057,  2.151596 )     2.06942635
  WF centre and spread    3  (  5.800378,  3.500326,  2.475109 )     2.08108584
  WF centre and spread    4  (  5.800504,  3.195810,  2.475117 )     2.08002806
  WF centre and spread    5  (  3.866929,  2.232607,  1.578680 )     1.76662637
  WF centre and spread    6  (  3.867105,  2.232433,  1.795170 )     2.06936808
  WF centre and spread    7  (  3.867183,  2.081241,  1.471676 )     2.08103811
  WF centre and spread    8  (  3.867037,  2.385638,  1.471666 )     2.08037266
  Sum of centres and spreads ( 38.669862, 22.326003, 15.787060 )    15.99454940
 
      0     0.160E+02     0.0000000000       15.9945493970       8.31  <-- CONV
        O_D=      0.0739419 O_OD=      5.7451959 O_TOT=     15.9945494 <-- SPRD
 ------------------------------------------------------------------------------
 Cycle:      1
  WF centre and spread    1  (  5.800509,  3.353802,  2.374977 )     1.67805198
  WF centre and spread    2  (  5.800206,  3.349204,  2.138184 )     2.06967880
  WF centre and spread    3  (  5.800370,  3.504613,  2.478122 )     2.08597088
  WF centre and spread    4  (  5.800503,  3.186169,  2.478171 )     2.08294924
  WF centre and spread    5  (  3.866929,  2.227697,  1.571746 )     1.67806659
  WF centre and spread    6  (  3.867109,  2.232286,  1.808586 )     2.06962190
  WF centre and spread    7  (  3.867198,  2.076956,  1.468664 )     2.08591429
  WF centre and spread    8  (  3.867039,  2.395277,  1.468613 )     2.08327901
  Sum of centres and spreads ( 38.669863, 22.326003, 15.787062 )    15.83353271
 
      1    -0.161E+00     0.1751113598       15.8335327059       8.35  <-- CONV
        O_D=      0.0850135 O_OD=      5.5731076 O_TOT=     15.8335327 <-- SPRD
 Delta: O_D=  0.1107160E-01 O_OD= -0.1720883E+00 O_TOT= -0.1610167E+00 <-- DLTA
 ------------------------------------------------------------------------------
 Cycle:      2
  WF centre and spread    1  (  5.800504,  3.365164,  2.390900 )     1.54212452
  WF centre and spread    2  (  5.800199,  3.349536,  2.114244 )     2.07150271
  WF centre and spread    3  (  5.800353,  3.510114,  2.481996 )     2.09647654
  WF centre and spread    4  (  5.800500,  3.168861,  2.482178 )     2.08930396
  WF centre and spread    5  (  3.866923,  2.216337,  1.555816 )     1.54212797
  WF centre and spread    6  (  3.867114,  2.231955,  1.832531 )     2.07143606
  WF centre and spread    7  (  3.867228,  2.071457,  1.464792 )     2.09640841
  WF centre and spread    8  (  3.867043,  2.412580,  1.464607 )     2.08960685
  Sum of centres and spreads ( 38.669865, 22.326004, 15.787064 )    15.59898704
 
      2    -0.235E+00     0.2498781067       15.5989870391       8.38  <-- CONV
        O_D=      0.0892311 O_OD=      5.3343444 O_TOT=     15.5989870 <-- SPRD
 Delta: O_D=  0.4217534E-02 O_OD= -0.2387632E+00 O_TOT= -0.2345457E+00 <-- DLTA
 ------------------------------------------------------------------------------
 Cycle:      3
  WF centre and spread    1  (  5.800506,  3.371052,  2.399079 )     1.50112508
  WF centre and spread    2  (  5.800196,  3.349681,  2.104525 )     2.06937252
  WF centre and spread    3  (  5.800348,  3.511224,  2.482779 )     2.09849845
  WF centre and spread    4  (  5.800500,  3.161778,  2.483035 )     2.08914327
  WF centre and spread    5  (  3.866917,  2.210451,  1.547636 )     1.50112551
  WF centre and spread    6  (  3.867115,  2.231810,  1.842251 )     2.06932017
  WF centre and spread    7  (  3.867238,  2.070347,  1.464010 )     2.09841422
  WF centre and spread    8  (  3.867044,  2.419661,  1.463751 )     2.08944479
  Sum of centres and spreads ( 38.669865, 22.326003, 15.787065 )    15.51644400
 
      3    -0.825E-01     0.2367604684       15.5164440039       8.42  <-- CONV
        O_D=      0.0854190 O_OD=      5.2556135 O_TOT=     15.5164440 <-- SPRD
 Delta: O_D= -0.3812117E-02 O_OD= -0.7873092E-01 O_TOT= -0.8254304E-01 <-- DLTA
 ------------------------------------------------------------------------------
 Cycle:      4
  WF centre and spread    1  (  5.800509,  3.376256,  2.406239 )     1.48590229
  WF centre and spread    2  (  5.800195,  3.349781,  2.096887 )     2.06684915
  WF centre and spread    3  (  5.800344,  3.511512,  2.482984 )     2.09981279
  WF centre and spread    4  (  5.800500,  3.156164,  2.483291 )     2.08834364
  WF centre and spread    5  (  3.866910,  2.205247,  1.540474 )     1.48590144
  WF centre and spread    6  (  3.867116,  2.231710,  1.849890 )     2.06679698
  WF centre and spread    7  (  3.867246,  2.070059,  1.463805 )     2.09971870
  WF centre and spread    8  (  3.867045,  2.425274,  1.463496 )     2.08864309
  Sum of centres and spreads ( 38.669865, 22.326004, 15.787065 )    15.48196807
 
      4    -0.345E-01     0.1281178640       15.4819680757       8.45  <-- CONV
        O_D=      0.0830894 O_OD=      5.2234671 O_TOT=     15.4819681 <-- SPRD
 Delta: O_D= -0.2329568E-02 O_OD= -0.3214636E-01 O_TOT= -0.3447593E-01 <-- DLTA
 ------------------------------------------------------------------------------
 Cycle:      5
  WF centre and spread    1  (  5.800513,  3.381979,  2.414044 )     1.47983903
  WF centre and spread    2  (  5.800195,  3.349865,  2.088846 )     2.06375572
  WF centre and spread    3  (  5.800340,  3.511559,  2.483019 )     2.10120101
  WF centre and spread    4  (  5.800499,  3.150217,  2.483376 )     2.08725953
  WF centre and spread    5  (  3.866902,  2.199526,  1.532668 )     1.47983691
  WF centre and spread    6  (  3.867116,  2.231626,  1.857932 )     2.06370212
  WF centre and spread    7  (  3.867255,  2.070012,  1.463769 )     2.10110165
  WF centre and spread    8  (  3.867045,  2.431220,  1.463411 )     2.08755927
  Sum of centres and spreads ( 38.669865, 22.326004, 15.787065 )    15.46425525
 
      5    -0.177E-01     0.0893593240       15.4642552463       8.49  <-- CONV
        O_D=      0.0813984 O_OD=      5.2074453 O_TOT=     15.4642552 <-- SPRD
 Delta: O_D= -0.1690961E-02 O_OD= -0.1602187E-01 O_TOT= -0.1771283E-01 <-- DLTA
 ------------------------------------------------------------------------------
 Cycle:      6
  WF centre and spread    1  (  5.800522,  3.395704,  2.432562 )     1.47429128
  WF centre and spread    2  (  5.800196,  3.349994,  2.069828 )     2.05600957
  WF centre and spread    3  (  5.800329,  3.511525,  2.483000 )     2.10476387
  WF centre and spread    4  (  5.800500,  3.136079,  2.483492 )     2.08455197
  WF centre and spread    5  (  3.866882,  2.185804,  1.514147 )     1.47428666
  WF centre and spread    6  (  3.867114,  2.231498,  1.876951 )     2.05594236
  WF centre and spread    7  (  3.867277,  2.070045,  1.463788 )     2.10466219
  WF centre and spread    8  (  3.867046,  2.445354,  1.463296 )     2.08484931
  Sum of centres and spreads ( 38.669865, 22.326004, 15.787065 )    15.43935720
 
      6    -0.249E-01     0.0797570550       15.4393572054       8.52  <-- CONV
        O_D=      0.0802424 O_OD=      5.1837032 O_TOT=     15.4393572 <-- SPRD
 Delta: O_D= -0.1156000E-02 O_OD= -0.2374204E-01 O_TOT= -0.2489804E-01 <-- DLTA
 ------------------------------------------------------------------------------
 Cycle:      7
  WF centre and spread    1  (  5.800524,  3.397966,  2.435553 )     1.47328399
  WF centre and spread    2  (  5.800195,  3.350007,  2.066747 )     2.05224241
  WF centre and spread    3  (  5.800328,  3.511523,  2.482998 )     2.10288828
  WF centre and spread    4  (  5.800500,  3.133750,  2.483514 )     2.08163558
  WF centre and spread    5  (  3.866878,  2.183542,  1.511156 )     1.47327886
  WF centre and spread    6  (  3.867114,  2.231485,  1.880033 )     2.05217466
  WF centre and spread    7  (  3.867280,  2.070048,  1.463790 )     2.10278832
  WF centre and spread    8  (  3.867046,  2.447682,  1.463274 )     2.08193363
  Sum of centres and spreads ( 38.669865, 22.326004, 15.787065 )    15.42022574
 
      7    -0.191E-01     0.1172944112       15.4202257379       8.56  <-- CONV
        O_D=      0.0786728 O_OD=      5.1661414 O_TOT=     15.4202257 <-- SPRD
 Delta: O_D= -0.1569600E-02 O_OD= -0.1756187E-01 O_TOT= -0.1913147E-01 <-- DLTA
 ------------------------------------------------------------------------------
 Cycle:      8
  WF centre and spread    1  (  5.800530,  3.405662,  2.445680 )     1.47495516
  WF centre and spread    2  (  5.800196,  3.350037,  2.056375 )     2.04485687
  WF centre and spread    3  (  5.800321,  3.511485,  2.482973 )     2.10209473
  WF centre and spread    4  (  5.800500,  3.125891,  2.483578 )     2.07718078
  WF centre and spread    5  (  3.866866,  2.175847,  1.501028 )     1.47494928
  WF centre and spread    6  (  3.867113,  2.231455,  1.890405 )     2.04477304
  WF centre and spread    7  (  3.867293,  2.070085,  1.463815 )     2.10200803
  WF centre and spread    8  (  3.867046,  2.455540,  1.463211 )     2.07747369
  Sum of centres and spreads ( 38.669866, 22.326004, 15.787065 )    15.39829158
 
      8    -0.219E-01     0.0843972329       15.3982915783       8.59  <-- CONV
        O_D=      0.0789057 O_OD=      5.1439744 O_TOT=     15.3982916 <-- SPRD
 Delta: O_D=  0.2328343E-03 O_OD= -0.2216699E-01 O_TOT= -0.2193416E-01 <-- DLTA
 ------------------------------------------------------------------------------
 Cycle:      9
  WF centre and spread    1  (  5.800547,  3.429145,  2.476166 )     1.48353169
  WF centre and spread    2  (  5.800198,  3.350015,  2.025331 )     2.02420727
  WF centre and spread    3  (  5.800301,  3.511277,  2.482833 )     2.10302176
  WF centre and spread    4  (  5.800503,  3.102211,  2.483792 )     2.06589231
  WF centre and spread    5  (  3.866829,  2.152369,  1.470539 )     1.48352305
  WF centre and spread    6  (  3.867110,  2.231478,  1.921453 )     2.02400286
  WF centre and spread    7  (  3.867333,  2.070294,  1.463955 )     2.10303008
  WF centre and spread    8  (  3.867045,  2.479214,  1.462996 )     2.06616358
  Sum of centres and spreads ( 38.669866, 22.326004, 15.787065 )    15.35337261
 
      9    -0.449E-01     0.1013579732       15.3533726114       8.62  <-- CONV
        O_D=      0.0816502 O_OD=      5.0963108 O_TOT=     15.3533726 <-- SPRD
 Delta: O_D=  0.2744565E-02 O_OD= -0.4766353E-01 O_TOT= -0.4491897E-01 <-- DLTA
 ------------------------------------------------------------------------------
 Cycle:     10
  WF centre and spread    1  (  5.800633,  3.549205,  2.623518 )     1.53631989
  WF centre and spread    2  (  5.800206,  3.348679,  1.875122 )     1.90941855
  WF centre and spread    3  (  5.800193,  3.509348,  2.481520 )     2.13202995
  WF centre and spread    4  (  5.800516,  2.984163,  2.487231 )     2.00727752
  WF centre and spread    5  (  3.866637,  2.032330,  1.323174 )     1.53631902
  WF centre and spread    6  (  3.867099,  2.232815,  2.071670 )     1.90709674
  WF centre and spread    7  (  3.867545,  2.072226,  1.465272 )     2.13376325
  WF centre and spread    8  (  3.867041,  2.597239,  1.459561 )     2.00707830
  Sum of centres and spreads ( 38.669868, 22.326005, 15.787067 )    15.16930323
 
     10    -0.184E+00     0.1642776690       15.1693032276       8.66  <-- CONV
        O_D=      0.1247543 O_OD=      4.8691373 O_TOT=     15.1693032 <-- SPRD
 Delta: O_D=  0.4310411E-01 O_OD= -0.2271735E+00 O_TOT= -0.1840694E+00 <-- DLTA
 ------------------------------------------------------------------------------
 Cycle:     11
  WF centre and spread    1  (  5.800638,  3.552765,  2.627129 )     1.49904135
  WF centre and spread    2  (  5.800204,  3.348665,  1.870874 )     1.87491714
  WF centre and spread    3  (  5.800197,  3.509632,  2.481720 )     2.10363193
  WF centre and spread    4  (  5.800516,  2.980317,  2.487669 )     1.97707156
  WF centre and spread    5  (  3.866627,  2.028771,  1.319563 )     1.49904496
  WF centre and spread    6  (  3.867099,  2.232828,  2.075917 )     1.87345526
  WF centre and spread    7  (  3.867544,  2.071941,  1.465070 )     2.10467602
  WF centre and spread    8  (  3.867042,  2.601085,  1.459124 )     1.97708136
  Sum of centres and spreads ( 38.669868, 22.326005, 15.787066 )    14.90891959
 
     11    -0.260E+00     0.4695424842       14.9089195898       8.69  <-- CONV
        O_D=      0.0900453 O_OD=      4.6434628 O_TOT=     14.9089196 <-- SPRD
 Delta: O_D= -0.3470907E-01 O_OD= -0.2256746E+00 O_TOT= -0.2603836E+00 <-- DLTA
 ------------------------------------------------------------------------------
 Cycle:     12
  WF centre and spread    1  (  5.800646,  3.560563,  2.634968 )     1.47315175
  WF centre and spread    2  (  5.800203,  3.348627,  1.861964 )     1.85396947
  WF centre and spread    3  (  5.800193,  3.509980,  2.481961 )     2.09389931
  WF centre and spread    4  (  5.800516,  2.972142,  2.488467 )     1.96178406
  WF centre and spread    5  (  3.866611,  2.020975,  1.311725 )     1.47316718
  WF centre and spread    6  (  3.867099,  2.232866,  2.084826 )     1.85319436
  WF centre and spread    7  (  3.867555,  2.071592,  1.464827 )     2.09436492
  WF centre and spread    8  (  3.867044,  2.609260,  1.458327 )     1.96193549
  Sum of centres and spreads ( 38.669867, 22.326005, 15.787065 )    14.76546653
 
     12    -0.143E+00     0.2713746807       14.7654665296       8.73  <-- CONV
        O_D=      0.0772139 O_OD=      4.5128410 O_TOT=     14.7654665 <-- SPRD
 Delta: O_D= -0.1283134E-01 O_OD= -0.1306217E+00 O_TOT= -0.1434531E+00 <-- DLTA
 ------------------------------------------------------------------------------
 Cycle:     13
  WF centre and spread    1  (  5.800654,  3.570812,  2.645117 )     1.45745249
  WF centre and spread    2  (  5.800204,  3.348594,  1.850628 )     1.83952421
  WF centre and spread    3  (  5.800182,  3.510237,  2.482138 )     2.09341293
  WF centre and spread    4  (  5.800516,  2.961566,  2.489425 )     1.95289685
  WF centre and spread    5  (  3.866592,  2.010727,  1.301576 )     1.45747461
  WF centre and spread    6  (  3.867098,  2.232899,  2.096160 )     1.83908973
  WF centre and spread    7  (  3.867578,  2.071334,  1.464651 )     2.09358053
  WF centre and spread    8  (  3.867044,  2.619836,  1.457369 )     1.95313064
  Sum of centres and spreads ( 38.669867, 22.326005, 15.787065 )    14.68656199
 
     13    -0.789E-01     0.1991908663       14.6865619918       8.76  <-- CONV
        O_D=      0.0724840 O_OD=      4.4386665 O_TOT=     14.6865620 <-- SPRD
 Delta: O_D= -0.4729943E-02 O_OD= -0.7417460E-01 O_TOT= -0.7890454E-01 <-- DLTA
 ------------------------------------------------------------------------------
 Cycle:     14
  WF centre and spread    1  (  5.800667,  3.590010,  2.663724 )     1.43939006
  WF centre and spread    2  (  5.800207,  3.348630,  1.829754 )     1.82020031
  WF centre and spread    3  (  5.800161,  3.510671,  2.482435 )     2.09973577
  WF centre and spread    4  (  5.800517,  2.941738,  2.491352 )     1.94204199
  WF centre and spread    5  (  3.866556,  1.991530,  1.282971 )     1.43942343
  WF centre and spread    6  (  3.867095,  2.232864,  2.117032 )     1.81994395
  WF centre and spread    7  (  3.867622,  2.070901,  1.464353 )     2.09974114
  WF centre and spread    8  (  3.867043,  2.639663,  1.455443 )     1.94231594
  Sum of centres and spreads ( 38.669868, 22.326005, 15.787065 )    14.60279259
 
     14    -0.838E-01     0.1732638446       14.6027925868       8.79  <-- CONV
        O_D=      0.0742473 O_OD=      4.3531337 O_TOT=     14.6027926 <-- SPRD
 Delta: O_D=  0.1763371E-02 O_OD= -0.8553278E-01 O_TOT= -0.8376941E-01 <-- DLTA
 ------------------------------------------------------------------------------
 Cycle:     15
  WF centre and spread    1  (  5.800747,  3.700758,  2.762169 )     1.39367523
  WF centre and spread    2  (  5.800221,  3.353131,  1.715427 )     1.70363979
  WF centre and spread    3  (  5.800033,  3.510995,  2.482499 )     2.14961039
  WF centre and spread    4  (  5.800530,  2.825839,  2.508131 )     1.86527114
  WF centre and spread    5  (  3.866329,  1.880784,  1.184531 )     1.39363646
  WF centre and spread    6  (  3.867073,  2.228359,  2.231342 )     1.70310985
  WF centre and spread    7  (  3.867900,  2.070577,  1.464292 )     2.14959221
  WF centre and spread    8  (  3.867036,  2.755563,  1.438672 )     1.86542834
  Sum of centres and spreads ( 38.669869, 22.326006, 15.787064 )    14.22396341
 
     15    -0.379E+00     0.2076317175       14.2239634110       8.83  <-- CONV
        O_D=      0.1022518 O_OD=      3.9463001 O_TOT=     14.2239634 <-- SPRD
 Delta: O_D=  0.2800444E-01 O_OD= -0.4068336E+00 O_TOT= -0.3788292E+00 <-- DLTA
 ------------------------------------------------------------------------------
 Cycle:     16
  WF centre and spread    1  (  5.800755,  3.703957,  2.763969 )     1.35902870
  WF centre and spread    2  (  5.800219,  3.353414,  1.712972 )     1.66400095
  WF centre and spread    3  (  5.800033,  3.511004,  2.482534 )     2.11709544
  WF centre and spread    4  (  5.800528,  2.822388,  2.508866 )     1.82659359
  WF centre and spread    5  (  3.866315,  1.877584,  1.182732 )     1.35903129
  WF centre and spread    6  (  3.867074,  2.228077,  2.233796 )     1.66359409
  WF centre and spread    7  (  3.867906,  2.070567,  1.464255 )     2.11705548
  WF centre and spread    8  (  3.867039,  2.759015,  1.437938 )     1.82682183
  Sum of centres and spreads ( 38.669869, 22.326006, 15.787063 )    13.93322136
 
     16    -0.291E+00     0.4821696277       13.9332213592       8.86  <-- CONV
        O_D=      0.0698516 O_OD=      3.6879582 O_TOT=     13.9332214 <-- SPRD
 Delta: O_D= -0.3240021E-01 O_OD= -0.2583418E+00 O_TOT= -0.2907421E+00 <-- DLTA
 ------------------------------------------------------------------------------
 Cycle:     17
  WF centre and spread    1  (  5.800766,  3.709816,  2.767218 )     1.34677509
  WF centre and spread    2  (  5.800220,  3.353939,  1.708327 )     1.64571967
  WF centre and spread    3  (  5.800024,  3.511111,  2.482644 )     2.11011255
  WF centre and spread    4  (  5.800530,  2.815885,  2.510257 )     1.80883572
  WF centre and spread    5  (  3.866293,  1.871725,  1.179486 )     1.34681239
  WF centre and spread    6  (  3.867071,  2.227551,  2.238440 )     1.64536120
  WF centre and spread    7  (  3.867927,  2.070459,  1.464144 )     2.11007529
  WF centre and spread    8  (  3.867038,  2.765519,  1.436548 )     1.80906635
  Sum of centres and spreads ( 38.669870, 22.326006, 15.787063 )    13.82275824
 
     17    -0.110E+00     0.2448536825       13.8227582458       8.90  <-- CONV
        O_D=      0.0657235 O_OD=      3.5816232 O_TOT=     13.8227582 <-- SPRD
 Delta: O_D= -0.4128094E-02 O_OD= -0.1063350E+00 O_TOT= -0.1104631E+00 <-- DLTA
 ------------------------------------------------------------------------------
 Cycle:     18
  WF centre and spread    1  (  5.800782,  3.721990,  2.773712 )     1.34631790
  WF centre and spread    2  (  5.800222,  3.355152,  1.698670 )     1.62233297
  WF centre and spread    3  (  5.800004,  3.511297,  2.482824 )     2.10642969
  WF centre and spread    4  (  5.800533,  2.802199,  2.513297 )     1.78396053
  WF centre and spread    5  (  3.866249,  1.859549,  1.172994 )     1.34636387
  WF centre and spread    6  (  3.867067,  2.226337,  2.248094 )     1.62184717
  WF centre and spread    7  (  3.867977,  2.070274,  1.463964 )     2.10648416
  WF centre and spread    8  (  3.867037,  2.779208,  1.433508 )     1.78414498
  Sum of centres and spreads ( 38.669870, 22.326006, 15.787063 )    13.71788127
 
     18    -0.105E+00     0.1939451989       13.7178812698       8.93  <-- CONV
        O_D=      0.0649564 O_OD=      3.4775133 O_TOT=     13.7178813 <-- SPRD
 Delta: O_D= -0.7670350E-03 O_OD= -0.1041099E+00 O_TOT= -0.1048770E+00 <-- DLTA
 ------------------------------------------------------------------------------
 Cycle:     19
  WF centre and spread    1  (  5.800803,  3.737895,  2.781582 )     1.35566630
  WF centre and spread    2  (  5.800223,  3.357068,  1.686232 )     1.59660596
  WF centre and spread    3  (  5.799975,  3.511365,  2.482919 )     2.10551028
  WF centre and spread    4  (  5.800536,  2.784129,  2.517730 )     1.75466361
  WF centre and spread    5  (  3.866190,  1.843641,  1.165126 )     1.35574017
  WF centre and spread    6  (  3.867063,  2.224420,  2.260527 )     1.59596740
  WF centre and spread    7  (  3.868047,  2.070207,  1.463870 )     2.10567730
  WF centre and spread    8  (  3.867034,  2.797282,  1.429076 )     1.75479150
  Sum of centres and spreads ( 38.669872, 22.326006, 15.787064 )    13.62462252
 
     19    -0.933E-01     0.1933497390       13.6246225162       8.97  <-- CONV
        O_D=      0.0654378 O_OD=      3.3837731 O_TOT=     13.6246225 <-- SPRD
 Delta: O_D=  0.4813903E-03 O_OD= -0.9374014E-01 O_TOT= -0.9325875E-01 <-- DLTA
 ------------------------------------------------------------------------------
 Cycle:     20
  WF centre and spread    1  (  5.800849,  3.767044,  2.793748 )     1.37776540
  WF centre and spread    2  (  5.800230,  3.361984,  1.664166 )     1.55131787
  WF centre and spread    3  (  5.799916,  3.510929,  2.482661 )     2.10970654
  WF centre and spread    4  (  5.800546,  2.750293,  2.527872 )     1.69977612
  WF centre and spread    5  (  3.866067,  1.814484,  1.152966 )     1.37789093
  WF centre and spread    6  (  3.867048,  2.219502,  2.282587 )     1.55030799
  WF centre and spread    7  (  3.868192,  2.070644,  1.464129 )     2.11013200
  WF centre and spread    8  (  3.867025,  2.831127,  1.418935 )     1.69974552
  Sum of centres and spreads ( 38.669873, 22.326007, 15.787064 )    13.47664236
 
     20    -0.148E+00     0.2077815198       13.4766423607       9.00  <-- CONV
        O_D=      0.0723618 O_OD=      3.2288690 O_TOT=     13.4766424 <-- SPRD
 Delta: O_D=  0.6923921E-02 O_OD= -0.1549041E+00 O_TOT= -0.1479802E+00 <-- DLTA
 ------------------------------------------------------------------------------
 Cycle:     21
  WF centre and spread    1  (  5.800930,  3.806195,  2.801842 )     1.43733622
  WF centre and spread    2  (  5.800252,  3.375032,  1.635197 )     1.47024512
  WF centre and spread    3  (  5.799810,  3.508674,  2.481050 )     2.11234114
  WF centre and spread    4  (  5.800569,  2.700208,  2.550515 )     1.59672719
  WF centre and spread    5  (  3.865852,  1.775316,  1.144881 )     1.43748465
  WF centre and spread    6  (  3.867005,  2.206452,  2.311543 )     1.46909629
  WF centre and spread    7  (  3.868459,  2.072900,  1.465740 )     2.11285866
  WF centre and spread    8  (  3.866997,  2.881231,  1.396294 )     1.59659133
  Sum of centres and spreads ( 38.669874, 22.326007, 15.787063 )    13.23268060
 
     21    -0.244E+00     0.2769608186       13.2326805977       9.03  <-- CONV
        O_D=      0.0624277 O_OD=      2.9948414 O_TOT=     13.2326806 <-- SPRD
 Delta: O_D= -0.9934100E-02 O_OD= -0.2340277E+00 O_TOT= -0.2439618E+00 <-- DLTA
 ------------------------------------------------------------------------------
 Cycle:     22
  WF centre and spread    1  (  5.800935,  3.807316,  2.801671 )     1.42369040
  WF centre and spread    2  (  5.800251,  3.375322,  1.634546 )     1.45839330
  WF centre and spread    3  (  5.799803,  3.508933,  2.481240 )     2.10412810
  WF centre and spread    4  (  5.800569,  2.698718,  2.551391 )     1.58574207
  WF centre and spread    5  (  3.865838,  1.774195,  1.145052 )     1.42385459
  WF centre and spread    6  (  3.867005,  2.206162,  2.312193 )     1.45782370
  WF centre and spread    7  (  3.868476,  2.072639,  1.465550 )     2.10430135
  WF centre and spread    8  (  3.866997,  2.882721,  1.395419 )     1.58581136
  Sum of centres and spreads ( 38.669875, 22.326007, 15.787063 )    13.14374489
 
     22    -0.889E-01     0.2841829946       13.1437448924       9.07  <-- CONV
        O_D=      0.0521509 O_OD=      2.9161824 O_TOT=     13.1437449 <-- SPRD
 Delta: O_D= -0.1027676E-01 O_OD= -0.7865895E-01 O_TOT= -0.8893571E-01 <-- DLTA
 ------------------------------------------------------------------------------
 Cycle:     23
  WF centre and spread    1  (  5.800951,  3.810596,  2.801047 )     1.41086667
  WF centre and spread    2  (  5.800253,  3.376219,  1.632728 )     1.45115999
  WF centre and spread    3  (  5.799782,  3.509612,  2.481716 )     2.10001721
  WF centre and spread    4  (  5.800571,  2.694368,  2.554018 )     1.57486786
  WF centre and spread    5  (  3.865798,  1.770912,  1.145678 )     1.41104283
  WF centre and spread    6  (  3.867000,  2.205265,  2.314010 )     1.45070739
  WF centre and spread    7  (  3.868525,  2.071959,  1.465073 )     2.10012293
  WF centre and spread    8  (  3.866995,  2.887074,  1.392793 )     1.57496790
  Sum of centres and spreads ( 38.669875, 22.326006, 15.787062 )    13.07375278
 
     23    -0.700E-01     0.1664587485       13.0737527828       9.10  <-- CONV
        O_D=      0.0522460 O_OD=      2.8460952 O_TOT=     13.0737528 <-- SPRD
 Delta: O_D=  0.9513550E-04 O_OD= -0.7008725E-01 O_TOT= -0.6999211E-01 <-- DLTA
 ------------------------------------------------------------------------------
 Cycle:     24
  WF centre and spread    1  (  5.800971,  3.814847,  2.799880 )     1.40387526
  WF centre and spread    2  (  5.800255,  3.377493,  1.630476 )     1.44539224
  WF centre and spread    3  (  5.799754,  3.510290,  2.482173 )     2.09726270
  WF centre and spread    4  (  5.800574,  2.688707,  2.557634 )     1.56328541
  WF centre and spread    5  (  3.865742,  1.766658,  1.146845 )     1.40405942
  WF centre and spread    6  (  3.866994,  2.203991,  2.316261 )     1.44511918
  WF centre and spread    7  (  3.868593,  2.071280,  1.464615 )     2.09725635
  WF centre and spread    8  (  3.866991,  2.892739,  1.389177 )     1.56343860
  Sum of centres and spreads ( 38.669875, 22.326006, 15.787062 )    13.01968916
 
     24    -0.541E-01     0.1559701257       13.0196891648       9.14  <-- CONV
        O_D=      0.0504723 O_OD=      2.7938053 O_TOT=     13.0196892 <-- SPRD
 Delta: O_D= -0.1773700E-02 O_OD= -0.5228992E-01 O_TOT= -0.5406362E-01 <-- DLTA
 ------------------------------------------------------------------------------
 Cycle:     25
  WF centre and spread    1  (  5.800999,  3.820088,  2.797896 )     1.40170374
  WF centre and spread    2  (  5.800258,  3.379236,  1.627765 )     1.43977213
  WF centre and spread    3  (  5.799715,  3.510857,  2.482553 )     2.09575274
  WF centre and spread    4  (  5.800579,  2.681671,  2.562499 )     1.54931245
  WF centre and spread    5  (  3.865666,  1.761413,  1.148832 )     1.40189280
  WF centre and spread    6  (  3.866986,  2.202248,  2.318971 )     1.43957906
  WF centre and spread    7  (  3.868689,  2.070713,  1.464235 )     2.09569016
  WF centre and spread    8  (  3.866985,  2.899780,  1.384313 )     1.54947707
  Sum of centres and spreads ( 38.669875, 22.326006, 15.787063 )    12.97318015
 
     25    -0.465E-01     0.1358747926       12.9731801517       9.17  <-- CONV
        O_D=      0.0500262 O_OD=      2.7477424 O_TOT=     12.9731802 <-- SPRD
 Delta: O_D= -0.4461592E-03 O_OD= -0.4606285E-01 O_TOT= -0.4650901E-01 <-- DLTA
 ------------------------------------------------------------------------------
 Cycle:     26
  WF centre and spread    1  (  5.801031,  3.825173,  2.795200 )     1.40398396
  WF centre and spread    2  (  5.800262,  3.381122,  1.625342 )     1.43418746
  WF centre and spread    3  (  5.799669,  3.511148,  2.482728 )     2.09574443
  WF centre and spread    4  (  5.800584,  2.674767,  2.567765 )     1.53473654
  WF centre and spread    5  (  3.865577,  1.756323,  1.151529 )     1.40417388
  WF centre and spread    6  (  3.866975,  2.200361,  2.321392 )     1.43402869
  WF centre and spread    7  (  3.868800,  2.070423,  1.464060 )     2.09566328
  WF centre and spread    8  (  3.866977,  2.906689,  1.379047 )     1.53489446
  Sum of centres and spreads ( 38.669876, 22.326005, 15.787063 )    12.93741270
 
     26    -0.358E-01     0.1224031130       12.9374126974       9.20  <-- CONV
        O_D=      0.0497143 O_OD=      2.7122869 O_TOT=     12.9374127 <-- SPRD
 Delta: O_D= -0.3119002E-03 O_OD= -0.3545555E-01 O_TOT= -0.3576745E-01 <-- DLTA
 ------------------------------------------------------------------------------
 Cycle:     27
  WF centre and spread    1  (  5.801071,  3.830171,  2.791624 )     1.40987827
  WF centre and spread    2  (  5.800267,  3.383227,  1.623147 )     1.42820569
  WF centre and spread    3  (  5.799615,  3.511203,  2.482723 )     2.09652317
  WF centre and spread    4  (  5.800591,  2.667841,  2.573690 )     1.51857494
  WF centre and spread    5  (  3.865472,  1.751319,  1.155107 )     1.41007188
  WF centre and spread    6  (  3.866962,  2.198257,  2.323585 )     1.42809271
  WF centre and spread    7  (  3.868933,  2.070367,  1.464065 )     2.09642381
  WF centre and spread    8  (  3.866966,  2.913621,  1.373122 )     1.51872726
  Sum of centres and spreads ( 38.669877, 22.326005, 15.787063 )    12.90649773
 
     27    -0.309E-01     0.1154994117       12.9064977275       9.24  <-- CONV
        O_D=      0.0487904 O_OD=      2.6822957 O_TOT=     12.9064977 <-- SPRD
 Delta: O_D= -0.9238440E-03 O_OD= -0.2999113E-01 O_TOT= -0.3091497E-01 <-- DLTA
 ------------------------------------------------------------------------------
 Cycle:     28
  WF centre and spread    1  (  5.801079,  3.830776,  2.791123 )     1.40913085
  WF centre and spread    2  (  5.800267,  3.383426,  1.622924 )     1.42573132
  WF centre and spread    3  (  5.799606,  3.511195,  2.482724 )     2.09529886
  WF centre and spread    4  (  5.800592,  2.667041,  2.574400 )     1.51470413
  WF centre and spread    5  (  3.865452,  1.750713,  1.155609 )     1.40932573
  WF centre and spread    6  (  3.866960,  2.198058,  2.323808 )     1.42561858
  WF centre and spread    7  (  3.868956,  2.070375,  1.464064 )     2.09519962
  WF centre and spread    8  (  3.866965,  2.914421,  1.372411 )     1.51485719
  Sum of centres and spreads ( 38.669877, 22.326005, 15.787063 )    12.88986630
 
     28    -0.166E-01     0.1122651900       12.8898662990       9.27  <-- CONV
        O_D=      0.0478864 O_OD=      2.6665683 O_TOT=     12.8898663 <-- SPRD
 Delta: O_D= -0.9040233E-03 O_OD= -0.1572741E-01 O_TOT= -0.1663143E-01 <-- DLTA
 ------------------------------------------------------------------------------
 Cycle:     29
  WF centre and spread    1  (  5.801102,  3.832504,  2.789582 )     1.41162329
  WF centre and spread    2  (  5.800268,  3.384010,  1.622299 )     1.42270502
  WF centre and spread    3  (  5.799578,  3.511181,  2.482725 )     2.09528330
  WF centre and spread    4  (  5.800595,  2.664733,  2.576525 )     1.50738537
  WF centre and spread    5  (  3.865394,  1.748982,  1.157151 )     1.41182022
  WF centre and spread    6  (  3.866955,  2.197474,  2.324431 )     1.42257899
  WF centre and spread    7  (  3.869026,  2.070389,  1.464063 )     2.09519185
  WF centre and spread    8  (  3.866960,  2.916732,  1.370287 )     1.50752800
  Sum of centres and spreads ( 38.669878, 22.326005, 15.787063 )    12.87411604
 
     29    -0.158E-01     0.0761623251       12.8741160433       9.31  <-- CONV
        O_D=      0.0478453 O_OD=      2.6508592 O_TOT=     12.8741160 <-- SPRD
 Delta: O_D= -0.4110775E-04 O_OD= -0.1570915E-01 O_TOT= -0.1575026E-01 <-- DLTA
 ------------------------------------------------------------------------------
 Cycle:     30
  WF centre and spread    1  (  5.801142,  3.835194,  2.786845 )     1.41792438
  WF centre and spread    2  (  5.800270,  3.384994,  1.621312 )     1.41867703
  WF centre and spread    3  (  5.799530,  3.511155,  2.482720 )     2.09584750
  WF centre and spread    4  (  5.800601,  2.661069,  2.580171 )     1.49620954
  WF centre and spread    5  (  3.865294,  1.746290,  1.159890 )     1.41812551
  WF centre and spread    6  (  3.866945,  2.196489,  2.325417 )     1.41855173
  WF centre and spread    7  (  3.869146,  2.070415,  1.464067 )     2.09575945
  WF centre and spread    8  (  3.866951,  2.920399,  1.366639 )     1.49634349
  Sum of centres and spreads ( 38.669879, 22.326006, 15.787063 )    12.85743863
 
     30    -0.167E-01     0.0798783199       12.8574386308       9.34  <-- CONV
        O_D=      0.0471447 O_OD=      2.6348823 O_TOT=     12.8574386 <-- SPRD
 Delta: O_D= -0.7005507E-03 O_OD= -0.1597686E-01 O_TOT= -0.1667741E-01 <-- DLTA
 ------------------------------------------------------------------------------
 Cycle:     31
  WF centre and spread    1  (  5.801201,  3.838695,  2.782664 )     1.42833076
  WF centre and spread    2  (  5.800275,  3.386437,  1.619907 )     1.41366566
  WF centre and spread    3  (  5.799457,  3.511102,  2.482706 )     2.09692428
  WF centre and spread    4  (  5.800609,  2.656177,  2.585638 )     1.48098021
  WF centre and spread    5  (  3.865143,  1.742784,  1.164074 )     1.42853502
  WF centre and spread    6  (  3.866929,  2.195046,  2.326821 )     1.41348711
  WF centre and spread    7  (  3.869331,  2.070469,  1.464082 )     2.09686899
  WF centre and spread    8  (  3.866937,  2.925296,  1.361171 )     1.48107617
  Sum of centres and spreads ( 38.669881, 22.326006, 15.787063 )    12.83986820
 
     31    -0.176E-01     0.0762873048       12.8398682001       9.38  <-- CONV
        O_D=      0.0472670 O_OD=      2.6171897 O_TOT=     12.8398682 <-- SPRD
 Delta: O_D=  0.1222102E-03 O_OD= -0.1769264E-01 O_TOT= -0.1757043E-01 <-- DLTA
 ------------------------------------------------------------------------------
 Cycle:     32
  WF centre and spread    1  (  5.801284,  3.842533,  2.776634 )     1.44290916
  WF centre and spread    2  (  5.800282,  3.388388,  1.618244 )     1.40717115
  WF centre and spread    3  (  5.799353,  3.510985,  2.482640 )     2.09815699
  WF centre and spread    4  (  5.800623,  2.650523,  2.593203 )     1.46165347
  WF centre and spread    5  (  3.864932,  1.738941,  1.170108 )     1.44311978
  WF centre and spread    6  (  3.866905,  2.193094,  2.328482 )     1.40700671
  WF centre and spread    7  (  3.869591,  2.070586,  1.464148 )     2.09809248
  WF centre and spread    8  (  3.866913,  2.930955,  1.353605 )     1.46173701
  Sum of centres and spreads ( 38.669883, 22.326006, 15.787064 )    12.81984674
 
     32    -0.200E-01     0.0888732226       12.8198467416       9.41  <-- CONV
        O_D=      0.0462839 O_OD=      2.5981513 O_TOT=     12.8198467 <-- SPRD
 Delta: O_D= -0.9830623E-03 O_OD= -0.1903840E-01 O_TOT= -0.2002146E-01 <-- DLTA
 ------------------------------------------------------------------------------
 Cycle:     33
  WF centre and spread    1  (  5.801363,  3.845140,  2.771046 )     1.45547255
  WF centre and spread    2  (  5.800289,  3.390054,  1.616991 )     1.40213256
  WF centre and spread    3  (  5.799253,  3.510879,  2.482566 )     2.09894975
  WF centre and spread    4  (  5.800637,  2.646453,  2.600016 )     1.44582053
  WF centre and spread    5  (  3.864732,  1.736329,  1.175700 )     1.45569110
  WF centre and spread    6  (  3.866882,  2.191428,  2.329733 )     1.40194879
  WF centre and spread    7  (  3.869839,  2.070691,  1.464222 )     2.09889457
  WF centre and spread    8  (  3.866889,  2.935030,  1.346790 )     1.44587845
  Sum of centres and spreads ( 38.669885, 22.326005, 15.787064 )    12.80478829
 
     33    -0.151E-01     0.0792010261       12.8047882942       9.44  <-- CONV
        O_D=      0.0459622 O_OD=      2.5834146 O_TOT=     12.8047883 <-- SPRD
 Delta: O_D= -0.3217242E-03 O_OD= -0.1473672E-01 O_TOT= -0.1505845E-01 <-- DLTA
 ------------------------------------------------------------------------------
 Cycle:     34
  WF centre and spread    1  (  5.801372,  3.845348,  2.770746 )     1.45458151
  WF centre and spread    2  (  5.800290,  3.390078,  1.616928 )     1.40079523
  WF centre and spread    3  (  5.799242,  3.510903,  2.482581 )     2.09790057
  WF centre and spread    4  (  5.800638,  2.646262,  2.600422 )     1.44407381
  WF centre and spread    5  (  3.864709,  1.736121,  1.175999 )     1.45480211
  WF centre and spread    6  (  3.866880,  2.191405,  2.329797 )     1.40067117
  WF centre and spread    7  (  3.869867,  2.070668,  1.464206 )     2.09780923
  WF centre and spread    8  (  3.866888,  2.935221,  1.346384 )     1.44415888
  Sum of centres and spreads ( 38.669885, 22.326005, 15.787064 )    12.79479250
 
     34    -0.100E-01     0.0948689623       12.7947925035       9.48  <-- CONV
        O_D=      0.0449847 O_OD=      2.5743963 O_TOT=     12.7947925 <-- SPRD
 Delta: O_D= -0.9775045E-03 O_OD= -0.9018286E-02 O_TOT= -0.9995791E-02 <-- DLTA
 ------------------------------------------------------------------------------
 Cycle:     35
  WF centre and spread    1  (  5.801404,  3.845998,  2.769709 )     1.45505695
  WF centre and spread    2  (  5.800291,  3.390145,  1.616766 )     1.39981982
  WF centre and spread    3  (  5.799204,  3.510968,  2.482621 )     2.09680147
  WF centre and spread    4  (  5.800641,  2.645677,  2.601762 )     1.44107378
  WF centre and spread    5  (  3.864631,  1.735471,  1.177037 )     1.45528137
  WF centre and spread    6  (  3.866873,  2.191338,  2.329958 )     1.39970913
  WF centre and spread    7  (  3.869959,  2.070602,  1.464167 )     2.09670179
  WF centre and spread    8  (  3.866881,  2.935806,  1.345045 )     1.44116125
  Sum of centres and spreads ( 38.669885, 22.326005, 15.787064 )    12.78560557
 
     35    -0.919E-02     0.0580916351       12.7856055666       9.51  <-- CONV
        O_D=      0.0448419 O_OD=      2.5653521 O_TOT=     12.7856056 <-- SPRD
 Delta: O_D= -0.1427838E-03 O_OD= -0.9044153E-02 O_TOT= -0.9186937E-02 <-- DLTA
 ------------------------------------------------------------------------------
 Cycle:     36
  WF centre and spread    1  (  5.801441,  3.846681,  2.768494 )     1.45660451
  WF centre and spread    2  (  5.800294,  3.390204,  1.616605 )     1.39913752
  WF centre and spread    3  (  5.799160,  3.511024,  2.482651 )     2.09594225
  WF centre and spread    4  (  5.800646,  2.645067,  2.603265 )     1.43816168
  WF centre and spread    5  (  3.864539,  1.734787,  1.178253 )     1.45683143
  WF centre and spread    6  (  3.866864,  2.191279,  2.330119 )     1.39905409
  WF centre and spread    7  (  3.870068,  2.070546,  1.464136 )     2.09582634
  WF centre and spread    8  (  3.866873,  2.936418,  1.343541 )     1.43825693
  Sum of centres and spreads ( 38.669886, 22.326005, 15.787063 )    12.77981476
 
     36    -0.579E-02     0.0545066624       12.7798147564       9.55  <-- CONV
        O_D=      0.0444678 O_OD=      2.5599354 O_TOT=     12.7798148 <-- SPRD
 Delta: O_D= -0.3741115E-03 O_OD= -0.5416699E-02 O_TOT= -0.5790810E-02 <-- DLTA
 ------------------------------------------------------------------------------
 Cycle:     37
  WF centre and spread    1  (  5.801494,  3.847591,  2.766756 )     1.45941651
  WF centre and spread    2  (  5.800298,  3.390261,  1.616342 )     1.39849743
  WF centre and spread    3  (  5.799095,  3.511081,  2.482685 )     2.09519767
  WF centre and spread    4  (  5.800652,  2.644240,  2.605378 )     1.43437004
  WF centre and spread    5  (  3.864405,  1.733876,  1.179992 )     1.45964492
  WF centre and spread    6  (  3.866852,  2.191222,  2.330382 )     1.39841949
  WF centre and spread    7  (  3.870227,  2.070489,  1.464102 )     2.09507984
  WF centre and spread    8  (  3.866862,  2.937245,  1.341427 )     1.43446067
  Sum of centres and spreads ( 38.669886, 22.326005, 15.787064 )    12.77508658
 
     37    -0.473E-02     0.0419787525       12.7750865823       9.58  <-- CONV
        O_D=      0.0444819 O_OD=      2.5551931 O_TOT=     12.7750866 <-- SPRD
 Delta: O_D=  0.1416480E-04 O_OD= -0.4742339E-02 O_TOT= -0.4728174E-02 <-- DLTA
 ------------------------------------------------------------------------------
 Cycle:     38
  WF centre and spread    1  (  5.801560,  3.848572,  2.764679 )     1.46297793
  WF centre and spread    2  (  5.800304,  3.390294,  1.616038 )     1.39780403
  WF centre and spread    3  (  5.799016,  3.511127,  2.482710 )     2.09464629
  WF centre and spread    4  (  5.800660,  2.643357,  2.607842 )     1.43009422
  WF centre and spread    5  (  3.864241,  1.732893,  1.182070 )     1.46320763
  WF centre and spread    6  (  3.866837,  2.191190,  2.330685 )     1.39773405
  WF centre and spread    7  (  3.870424,  2.070442,  1.464077 )     2.09452614
  WF centre and spread    8  (  3.866847,  2.938129,  1.338963 )     1.43018070
  Sum of centres and spreads ( 38.669888, 22.326004, 15.787064 )    12.77117097
 
     38    -0.392E-02     0.0411475115       12.7711709736       9.61  <-- CONV
        O_D=      0.0443567 O_OD=      2.5514028 O_TOT=     12.7711710 <-- SPRD
 Delta: O_D= -0.1252824E-03 O_OD= -0.3790326E-02 O_TOT= -0.3915609E-02 <-- DLTA
 ------------------------------------------------------------------------------
 Cycle:     39
  WF centre and spread    1  (  5.801636,  3.849545,  2.762410 )     1.46689350
  WF centre and spread    2  (  5.800309,  3.390281,  1.615720 )     1.39705182
  WF centre and spread    3  (  5.798924,  3.511150,  2.482719 )     2.09442145
  WF centre and spread    4  (  5.800669,  2.642509,  2.610478 )     1.42560571
  WF centre and spread    5  (  3.864052,  1.731920,  1.184340 )     1.46712433
  WF centre and spread    6  (  3.866819,  2.191202,  2.331003 )     1.39698658
  WF centre and spread    7  (  3.870651,  2.070419,  1.464068 )     2.09430001
  WF centre and spread    8  (  3.866830,  2.938978,  1.336326 )     1.42568689
  Sum of centres and spreads ( 38.669889, 22.326004, 15.787064 )    12.76807029
 
     39    -0.310E-02     0.0359013085       12.7680702896       9.65  <-- CONV
        O_D=      0.0443319 O_OD=      2.5483269 O_TOT=     12.7680703 <-- SPRD
 Delta: O_D= -0.2477997E-04 O_OD= -0.3075904E-02 O_TOT= -0.3100684E-02 <-- DLTA
 ------------------------------------------------------------------------------
 Cycle:     40
  WF centre and spread    1  (  5.801650,  3.849678,  2.762099 )     1.46708063
  WF centre and spread    2  (  5.800310,  3.390249,  1.615676 )     1.39665132
  WF centre and spread    3  (  5.798907,  3.511143,  2.482715 )     2.09430096
  WF centre and spread    4  (  5.800670,  2.642412,  2.610823 )     1.42474370
  WF centre and spread    5  (  3.864016,  1.731786,  1.184652 )     1.46731168
  WF centre and spread    6  (  3.866816,  2.191235,  2.331047 )     1.39658588
  WF centre and spread    7  (  3.870693,  2.070426,  1.464072 )     2.09417908
  WF centre and spread    8  (  3.866827,  2.939075,  1.335981 )     1.42482478
  Sum of centres and spreads ( 38.669889, 22.326004, 15.787064 )    12.76567803
 
     40    -0.239E-02     0.0423109522       12.7656780310       9.68  <-- CONV
        O_D=      0.0442008 O_OD=      2.5460657 O_TOT=     12.7656780 <-- SPRD
 Delta: O_D= -0.1311013E-03 O_OD= -0.2261157E-02 O_TOT= -0.2392259E-02 <-- DLTA
 ------------------------------------------------------------------------------
 Cycle:     41
  WF centre and spread    1  (  5.801693,  3.850066,  2.761175 )     1.46828827
  WF centre and spread    2  (  5.800313,  3.390146,  1.615546 )     1.39608222
  WF centre and spread    3  (  5.798856,  3.511129,  2.482708 )     2.09444843
  WF centre and spread    4  (  5.800675,  2.642133,  2.611847 )     1.42280349
  WF centre and spread    5  (  3.863909,  1.731398,  1.185576 )     1.46851979
  WF centre and spread    6  (  3.866807,  2.191338,  2.331176 )     1.39601552
  WF centre and spread    7  (  3.870819,  2.070440,  1.464079 )     2.09432603
  WF centre and spread    8  (  3.866818,  2.939355,  1.334956 )     1.42288258
  Sum of centres and spreads ( 38.669890, 22.326004, 15.787064 )    12.76336632
 
     41    -0.231E-02     0.0292943053       12.7633663235       9.72  <-- CONV
        O_D=      0.0441423 O_OD=      2.5438124 O_TOT=     12.7633663 <-- SPRD
 Delta: O_D= -0.5843612E-04 O_OD= -0.2253271E-02 O_TOT= -0.2311708E-02 <-- DLTA
 ------------------------------------------------------------------------------
 Cycle:     42
  WF centre and spread    1  (  5.801762,  3.850655,  2.759714 )     1.47044449
  WF centre and spread    2  (  5.800317,  3.389977,  1.615336 )     1.39536912
  WF centre and spread    3  (  5.798774,  3.511118,  2.482702 )     2.09473667
  WF centre and spread    4  (  5.800682,  2.641722,  2.613472 )     1.41995435
  WF centre and spread    5  (  3.863736,  1.730808,  1.187039 )     1.47067674
  WF centre and spread    6  (  3.866792,  2.191507,  2.331387 )     1.39530310
  WF centre and spread    7  (  3.871024,  2.070451,  1.464084 )     2.09461250
  WF centre and spread    8  (  3.866804,  2.939767,  1.333331 )     1.42003111
  Sum of centres and spreads ( 38.669892, 22.326004, 15.787064 )    12.76112808
 
     42    -0.224E-02     0.0298108919       12.7611280807       9.75  <-- CONV
        O_D=      0.0440061 O_OD=      2.5417104 O_TOT=     12.7611281 <-- SPRD
 Delta: O_D= -0.1362003E-03 O_OD= -0.2102043E-02 O_TOT= -0.2238243E-02 <-- DLTA
 ------------------------------------------------------------------------------
 Cycle:     43
  WF centre and spread    1  (  5.801872,  3.851502,  2.757520 )     1.47385056
[...]
  WF centre and spread    7  (  3.927353,  2.069686,  1.463491 )     2.09012406
  WF centre and spread    8  (  3.863001,  2.937683,  1.303574 )     1.38934011
  Sum of centres and spreads ( 38.670283, 22.325990, 15.787055 )    12.73621818
 
     84    -0.697E-03     0.0177257034       12.7362181779      11.19  <-- CONV
        O_D=      0.0430062 O_OD=      2.5178004 O_TOT=     12.7362182 <-- SPRD
 Delta: O_D= -0.2312342E-04 O_OD= -0.6742357E-03 O_TOT= -0.6973592E-03 <-- DLTA
 ------------------------------------------------------------------------------
 Cycle:     85
  WF centre and spread    1  (  5.822714,  3.862274,  2.733073 )     1.49786183
  WF centre and spread    2  (  5.801924,  3.376825,  1.611688 )     1.38920806
  WF centre and spread    3  (  5.774227,  3.511248,  2.482840 )     2.09378480
  WF centre and spread    4  (  5.802383,  2.643824,  2.643421 )     1.38909437
  WF centre and spread    5  (  3.812060,  1.719867,  1.214194 )     1.49727604
  WF centre and spread    6  (  3.862745,  2.204783,  2.334926 )     1.38951621
  WF centre and spread    7  (  3.931533,  2.069562,  1.463400 )     2.08927063
  WF centre and spread    8  (  3.862724,  2.937604,  1.303512 )     1.38947287
  Sum of centres and spreads ( 38.670310, 22.325988, 15.787054 )    12.73548481
 
     85    -0.733E-03     0.0156923846       12.7354848102      11.23  <-- CONV
        O_D=      0.0430335 O_OD=      2.5170397 O_TOT=     12.7354848 <-- SPRD
 Delta: O_D=  0.2733984E-04 O_OD= -0.7607075E-03 O_TOT= -0.7333677E-03 <-- DLTA
 ------------------------------------------------------------------------------
 Cycle:     86
  WF centre and spread    1  (  5.824996,  3.862298,  2.732927 )     1.49791583
  WF centre and spread    2  (  5.802101,  3.376700,  1.611704 )     1.38940424
  WF centre and spread    3  (  5.771561,  3.511293,  2.482873 )     2.09344544
  WF centre and spread    4  (  5.802561,  2.643913,  2.643539 )     1.38923145
  WF centre and spread    5  (  3.806474,  1.719991,  1.214446 )     1.49714820
  WF centre and spread    6  (  3.862314,  2.204934,  2.334888 )     1.38979043
  WF centre and spread    7  (  3.938055,  2.069353,  1.463250 )     2.08799643
  WF centre and spread    8  (  3.862293,  2.937502,  1.303425 )     1.38968534
  Sum of centres and spreads ( 38.670353, 22.325984, 15.787052 )    12.73461737
 
     86    -0.867E-03     0.0173431790       12.7346173698      11.26  <-- CONV
        O_D=      0.0430560 O_OD=      2.5161498 O_TOT=     12.7346174 <-- SPRD
 Delta: O_D=  0.2244531E-04 O_OD= -0.8898858E-03 O_TOT= -0.8674405E-03 <-- DLTA
 ------------------------------------------------------------------------------
 Cycle:     87
  WF centre and spread    1  (  5.828993,  3.862344,  2.732687 )     1.49807740
  WF centre and spread    2  (  5.802410,  3.376478,  1.611719 )     1.38972814
  WF centre and spread    3  (  5.766890,  3.511369,  2.482929 )     2.09304569
  WF centre and spread    4  (  5.802872,  2.644040,  2.643727 )     1.38947633
  WF centre and spread    5  (  3.796704,  1.720241,  1.214897 )     1.49695994
  WF centre and spread    6  (  3.861562,  2.205205,  2.334828 )     1.39026180
  WF centre and spread    7  (  3.949459,  2.068952,  1.462963 )     2.08574217
  WF centre and spread    8  (  3.861539,  2.937348,  1.303298 )     1.39007450
  Sum of centres and spreads ( 38.670428, 22.325978, 15.787047 )    12.73336597
 
     87    -0.125E-02     0.0193849510       12.7333659708      11.29  <-- CONV
        O_D=      0.0431415 O_OD=      2.5148129 O_TOT=     12.7333660 <-- SPRD
 Delta: O_D=  0.8556924E-04 O_OD= -0.1336968E-02 O_TOT= -0.1251399E-02 <-- DLTA
 ------------------------------------------------------------------------------
 Cycle:     88
  WF centre and spread    1  (  5.829318,  3.862352,  2.732681 )     1.49790840
  WF centre and spread    2  (  5.802435,  3.376463,  1.611713 )     1.38954904
  WF centre and spread    3  (  5.766510,  3.511370,  2.482928 )     2.09294460
  WF centre and spread    4  (  5.802897,  2.644037,  2.643731 )     1.38930979
  WF centre and spread    5  (  3.795915,  1.720259,  1.214922 )     1.49675920
  WF centre and spread    6  (  3.861501,  2.205225,  2.334830 )     1.39009622
  WF centre and spread    7  (  3.950380,  2.068923,  1.462943 )     2.08547931
  WF centre and spread    8  (  3.861478,  2.937349,  1.303299 )     1.38992239
  Sum of centres and spreads ( 38.670435, 22.325977, 15.787047 )    12.73196895
 
     88    -0.140E-02     0.0325041716       12.7319689488      11.33  <-- CONV
        O_D=      0.0430715 O_OD=      2.5134859 O_TOT=     12.7319689 <-- SPRD
 Delta: O_D= -0.7006011E-04 O_OD= -0.1326962E-02 O_TOT= -0.1397022E-02 <-- DLTA
 ------------------------------------------------------------------------------
 Cycle:     89
  WF centre and spread    1  (  5.830271,  3.862372,  2.732660 )     1.49780182
  WF centre and spread    2  (  5.802508,  3.376419,  1.611697 )     1.38938903
  WF centre and spread    3  (  5.765396,  3.511377,  2.482932 )     2.09294865
  WF centre and spread    4  (  5.802971,  2.644026,  2.643745 )     1.38917776
  WF centre and spread    5  (  3.793601,  1.720316,  1.214998 )     1.49655745
  WF centre and spread    6  (  3.861324,  2.205283,  2.334833 )     1.38997673
  WF centre and spread    7  (  3.953083,  2.068831,  1.462879 )     2.08499883
  WF centre and spread    8  (  3.861300,  2.937353,  1.303303 )     1.38983226
  Sum of centres and spreads ( 38.670454, 22.325976, 15.787046 )    12.73068255
 
     89    -0.129E-02     0.0221092631       12.7306825514      11.36  <-- CONV
        O_D=      0.0430590 O_OD=      2.5122120 O_TOT=     12.7306826 <-- SPRD
 Delta: O_D= -0.1251862E-04 O_OD= -0.1273879E-02 O_TOT= -0.1286397E-02 <-- DLTA
 ------------------------------------------------------------------------------
 Cycle:     90
  WF centre and spread    1  (  5.832078,  3.862403,  2.732613 )     1.49775124
  WF centre and spread    2  (  5.802647,  3.376343,  1.611666 )     1.38925893
  WF centre and spread    3  (  5.763282,  3.511400,  2.482946 )     2.09299831
  WF centre and spread    4  (  5.803111,  2.644009,  2.643776 )     1.38907408
  WF centre and spread    5  (  3.789218,  1.720437,  1.215154 )     1.49631993
  WF centre and spread    6  (  3.860988,  2.205386,  2.334840 )     1.38992629
  WF centre and spread    7  (  3.958201,  2.068638,  1.462745 )     2.08408828
  WF centre and spread    8  (  3.860963,  2.937356,  1.303305 )     1.38980987
  Sum of centres and spreads ( 38.670488, 22.325972, 15.787043 )    12.72922693
 
     90    -0.146E-02     0.0226430753       12.7292269289      11.40  <-- CONV
        O_D=      0.0430296 O_OD=      2.5107858 O_TOT=     12.7292269 <-- SPRD
 Delta: O_D= -0.2940199E-04 O_OD= -0.1426220E-02 O_TOT= -0.1455622E-02 <-- DLTA
 ------------------------------------------------------------------------------
 Cycle:     91
  WF centre and spread    1  (  5.835297,  3.862446,  2.732522 )     1.49781689
  WF centre and spread    2  (  5.802896,  3.376222,  1.611609 )     1.38920892
  WF centre and spread    3  (  5.759518,  3.511450,  2.482980 )     2.09303546
  WF centre and spread    4  (  5.803361,  2.643985,  2.643840 )     1.38903615
  WF centre and spread    5  (  3.781426,  1.720687,  1.215454 )     1.49603204
  WF centre and spread    6  (  3.860389,  2.205558,  2.334851 )     1.39002429
  WF centre and spread    7  (  3.967297,  2.068264,  1.462479 )     2.08228405
  WF centre and spread    8  (  3.860364,  2.937354,  1.303304 )     1.38991942
  Sum of centres and spreads ( 38.670548, 22.325966, 15.787039 )    12.72735723
 
     91    -0.187E-02     0.0238160305       12.7273572299      11.43  <-- CONV
        O_D=      0.0431401 O_OD=      2.5088056 O_TOT=     12.7273572 <-- SPRD
 Delta: O_D=  0.1105579E-03 O_OD= -0.1980257E-02 O_TOT= -0.1869699E-02 <-- DLTA
 ------------------------------------------------------------------------------
 Cycle:     92
  WF centre and spread    1  (  5.841970,  3.862482,  2.732301 )     1.49816131
  WF centre and spread    2  (  5.803412,  3.375992,  1.611535 )     1.38940412
  WF centre and spread    3  (  5.751716,  3.511578,  2.483072 )     2.09289632
  WF centre and spread    4  (  5.803880,  2.643983,  2.643969 )     1.38924268
  WF centre and spread    5  (  3.765333,  1.721355,  1.216176 )     1.49557017
  WF centre and spread    6  (  3.859155,  2.205900,  2.334820 )     1.39055838
  WF centre and spread    7  (  3.986078,  2.067367,  1.461839 )     2.07778049
  WF centre and spread    8  (  3.859124,  2.937293,  1.303315 )     1.39046245
  Sum of centres and spreads ( 38.670667, 22.325951, 15.787028 )    12.72407592
 
     92    -0.328E-02     0.0310697791       12.7240759244      11.47  <-- CONV
        O_D=      0.0432595 O_OD=      2.5054049 O_TOT=     12.7240759 <-- SPRD
 Delta: O_D=  0.1193613E-03 O_OD= -0.3400667E-02 O_TOT= -0.3281305E-02 <-- DLTA
 ------------------------------------------------------------------------------
 Cycle:     93
  WF centre and spread    1  (  5.853861,  3.862424,  2.731845 )     1.49907762
  WF centre and spread    2  (  5.804332,  3.375617,  1.611489 )     1.39046882
  WF centre and spread    3  (  5.737812,  3.511881,  2.483295 )     2.09227091
  WF centre and spread    4  (  5.804809,  2.644062,  2.644188 )     1.39021885
  WF centre and spread    5  (  3.736882,  1.722985,  1.217750 )     1.49482411
  WF centre and spread    6  (  3.856975,  2.206498,  2.334643 )     1.39231296
  WF centre and spread    7  (  4.019266,  2.065370,  1.460415 )     2.06760445
  WF centre and spread    8  (  3.856925,  2.937079,  1.303380 )     1.39210917
  Sum of centres and spreads ( 38.670863, 22.325917, 15.787004 )    12.71888688
 
     93    -0.519E-02     0.0377810377       12.7188868843      11.50  <-- CONV
        O_D=      0.0440460 O_OD=      2.4994293 O_TOT=     12.7188869 <-- SPRD
 Delta: O_D=  0.7865763E-03 O_OD= -0.5975616E-02 O_TOT= -0.5189040E-02 <-- DLTA
 ------------------------------------------------------------------------------
 Cycle:     94
  WF centre and spread    1  (  5.854380,  3.862399,  2.731831 )     1.49821100
  WF centre and spread    2  (  5.804372,  3.375623,  1.611504 )     1.38975585
  WF centre and spread    3  (  5.737207,  3.511907,  2.483315 )     2.09147564
  WF centre and spread    4  (  5.804849,  2.644084,  2.644195 )     1.38958888
  WF centre and spread    5  (  3.735680,  1.723082,  1.217815 )     1.49387381
  WF centre and spread    6  (  3.856885,  2.206507,  2.334616 )     1.39165069
  WF centre and spread    7  (  4.020662,  2.065263,  1.460338 )     2.06634758
  WF centre and spread    8  (  3.856835,  2.937050,  1.303390 )     1.39154117
  Sum of centres and spreads ( 38.670869, 22.325915, 15.787003 )    12.71244463
 
     94    -0.644E-02     0.0752781756       12.7124446288      11.53  <-- CONV
        O_D=      0.0434563 O_OD=      2.4935768 O_TOT=     12.7124446 <-- SPRD
 Delta: O_D= -0.5897742E-03 O_OD= -0.5852481E-02 O_TOT= -0.6442255E-02 <-- DLTA
 ------------------------------------------------------------------------------
 Cycle:     95
  WF centre and spread    1  (  5.856192,  3.862291,  2.731762 )     1.49742345
  WF centre and spread    2  (  5.804511,  3.375632,  1.611584 )     1.38954968
  WF centre and spread    3  (  5.735093,  3.511992,  2.483379 )     2.09028952
  WF centre and spread    4  (  5.804989,  2.644179,  2.644204 )     1.38937676
  WF centre and spread    5  (  3.731483,  1.723445,  1.218066 )     1.49277924
  WF centre and spread    6  (  3.856570,  2.206548,  2.334492 )     1.39159001
  WF centre and spread    7  (  4.025534,  2.064891,  1.460069 )     2.06356050
  WF centre and spread    8  (  3.856520,  2.936931,  1.303443 )     1.39147283
  Sum of centres and spreads ( 38.670893, 22.325910, 15.786999 )    12.70604198
 
     95    -0.640E-02     0.0476502248       12.7060419785      11.57  <-- CONV
        O_D=      0.0433778 O_OD=      2.4872526 O_TOT=     12.7060420 <-- SPRD
 Delta: O_D= -0.7846881E-04 O_OD= -0.6324182E-02 O_TOT= -0.6402650E-02 <-- DLTA
 ------------------------------------------------------------------------------
 Cycle:     96
  WF centre and spread    1  (  5.858750,  3.862136,  2.731646 )     1.49702570
  WF centre and spread    2  (  5.804710,  3.375635,  1.611690 )     1.38966314
  WF centre and spread    3  (  5.732110,  3.512108,  2.483466 )     2.08904517
  WF centre and spread    4  (  5.805187,  2.644302,  2.644205 )     1.38946931
  WF centre and spread    5  (  3.725578,  1.723976,  1.218448 )     1.49193663
  WF centre and spread    6  (  3.856128,  2.206617,  2.334324 )     1.39191522
  WF centre and spread    7  (  4.032384,  2.064355,  1.459685 )     2.05997308
  WF centre and spread    8  (  3.856079,  2.936773,  1.303529 )     1.39177706
  Sum of centres and spreads ( 38.670925, 22.325902, 15.786994 )    12.70080532
 
     96    -0.524E-02     0.0480827046       12.7008053195      11.60  <-- CONV
        O_D=      0.0431252 O_OD=      2.4822685 O_TOT=     12.7008053 <-- SPRD
 Delta: O_D= -0.2525897E-03 O_OD= -0.4984069E-02 O_TOT= -0.5236659E-02 <-- DLTA
 ------------------------------------------------------------------------------
 Cycle:     97
  WF centre and spread    1  (  5.862849,  3.861934,  2.731477 )     1.49697373
  WF centre and spread    2  (  5.805028,  3.375625,  1.611780 )     1.39005650
  WF centre and spread    3  (  5.727328,  3.512291,  2.483603 )     2.08766735
  WF centre and spread    4  (  5.805505,  2.644423,  2.644216 )     1.38978861
  WF centre and spread    5  (  3.716158,  1.724816,  1.219070 )     1.49114441
  WF centre and spread    6  (  3.855426,  2.206744,  2.334132 )     1.39265328
  WF centre and spread    7  (  4.043305,  2.063463,  1.459044 )     2.05465726
  WF centre and spread    8  (  3.855378,  2.936594,  1.303664 )     1.39243478
  Sum of centres and spreads ( 38.670976, 22.325889, 15.786986 )    12.69537591
 
     97    -0.543E-02     0.0431399316       12.6953759095      11.64  <-- CONV
        O_D=      0.0432489 O_OD=      2.4767155 O_TOT=     12.6953759 <-- SPRD
 Delta: O_D=  0.1236462E-03 O_OD= -0.5553056E-02 O_TOT= -0.5429410E-02 <-- DLTA
 ------------------------------------------------------------------------------
 Cycle:     98
  WF centre and spread    1  (  5.868788,  3.861660,  2.731233 )     1.49725901
  WF centre and spread    2  (  5.805487,  3.375583,  1.611879 )     1.39080911
  WF centre and spread    3  (  5.720401,  3.512560,  2.483801 )     2.08612070
  WF centre and spread    4  (  5.805963,  2.644550,  2.644215 )     1.39042871
  WF centre and spread    5  (  3.702618,  1.726089,  1.220024 )     1.49031113
  WF centre and spread    6  (  3.854422,  2.206962,  2.333875 )     1.39392942
  WF centre and spread    7  (  4.058991,  2.062090,  1.458062 )     2.04700325
  WF centre and spread    8  (  3.854375,  2.936376,  1.303883 )     1.39359201
  Sum of centres and spreads ( 38.671045, 22.325870, 15.786972 )    12.68945334
 
     98    -0.592E-02     0.0463330403       12.6894533360      11.67  <-- CONV
        O_D=      0.0432773 O_OD=      2.4707645 O_TOT=     12.6894533 <-- SPRD
 Delta: O_D=  0.2842096E-04 O_OD= -0.5950994E-02 O_TOT= -0.5922573E-02 <-- DLTA
 ------------------------------------------------------------------------------
 Cycle:     99
  WF centre and spread    1  (  5.878378,  3.861236,  2.730852 )     1.49806554
  WF centre and spread    2  (  5.806226,  3.375472,  1.612012 )     1.39222875
  WF centre and spread    3  (  5.709217,  3.513008,  2.484120 )     2.08419503
  WF centre and spread    4  (  5.806701,  2.644692,  2.644182 )     1.39172043
  WF centre and spread    5  (  3.681024,  1.728317,  1.221685 )     1.48922399
  WF centre and spread    6  (  3.852831,  2.207370,  2.333466 )     1.39625145
  WF centre and spread    7  (  4.083986,  2.059668,  1.456344 )     2.03424909
  WF centre and spread    8  (  3.852783,  2.936073,  1.304287 )     1.39578028
  Sum of centres and spreads ( 38.671146, 22.325835, 15.786948 )    12.68171455
 
     99    -0.774E-02     0.0496657480       12.6817145544      11.71  <-- CONV
        O_D=      0.0437241 O_OD=      2.4625789 O_TOT=     12.6817146 <-- SPRD
 Delta: O_D=  0.4468353E-03 O_OD= -0.8185617E-02 O_TOT= -0.7738782E-02 <-- DLTA
 ------------------------------------------------------------------------------
 Cycle:    100
  WF centre and spread    1  (  5.879259,  3.861225,  2.730846 )     1.49701267
  WF centre and spread    2  (  5.806291,  3.375452,  1.611991 )     1.39130676
  WF centre and spread    3  (  5.708188,  3.513041,  2.484141 )     2.08335329
  WF centre and spread    4  (  5.806768,  2.644665,  2.644172 )     1.39082354
  WF centre and spread    5  (  3.679124,  1.728495,  1.221810 )     1.48799275
  WF centre and spread    6  (  3.852696,  2.207421,  2.333460 )     1.39542052
  WF centre and spread    7  (  4.086184,  2.059449,  1.456191 )     2.03240160
  WF centre and spread    8  (  3.852647,  2.936084,  1.304335 )     1.39497732
  Sum of centres and spreads ( 38.671157, 22.325832, 15.786946 )    12.67328846
 
    100    -0.843E-02     0.0792568111       12.6732884605      11.74  <-- CONV
        O_D=      0.0433193 O_OD=      2.4545576 O_TOT=     12.6732885 <-- SPRD
 Delta: O_D= -0.4048191E-03 O_OD= -0.8021275E-02 O_TOT= -0.8426094E-02 <-- DLTA
 ------------------------------------------------------------------------------

 Writing checkpoint file aiida.chk... done

 Final State
  WF centre and spread    1  (  5.879259,  3.861225,  2.730846 )     1.49701267
  WF centre and spread    2  (  5.806291,  3.375452,  1.611991 )     1.39130676
  WF centre and spread    3  (  5.708188,  3.513041,  2.484141 )     2.08335329
  WF centre and spread    4  (  5.806768,  2.644665,  2.644172 )     1.39082354
  WF centre and spread    5  (  3.679124,  1.728495,  1.221810 )     1.48799275
  WF centre and spread    6  (  3.852696,  2.207421,  2.333460 )     1.39542052
  WF centre and spread    7  (  4.086184,  2.059449,  1.456191 )     2.03240160
  WF centre and spread    8  (  3.852647,  2.936084,  1.304335 )     1.39497732
  Sum of centres and spreads ( 38.671157, 22.325832, 15.786946 )    12.67328846
 
         Spreads (Ang^2)       Omega I      =    10.175411565
        ================       Omega D      =     0.043319298
                               Omega OD     =     2.454557597
    Final Spread (Ang^2)       Omega Total  =    12.673288461
 ------------------------------------------------------------------------------
 Time for wannierise            3.425 (sec)

 Writing checkpoint file aiida.chk... done

 *---------------------------------------------------------------------------*
 |                               PLOTTING                                    |
 *---------------------------------------------------------------------------*
 
 Time for plotting              5.910 (sec)
 Total Execution Time          18.995 (sec)

 *===========================================================================*
 |                             TIMING INFORMATION                            |
 *===========================================================================*
 |    Tag                                                Ncalls      Time (s)|
 |---------------------------------------------------------------------------|
 |kmesh: get                                        :         1         0.211|
 |overlap: allocate                                 :         1         0.000|
 |overlap: read                                     :         1         1.095|
 |dis: main                                         :         1         8.292|
 |wann: main                                        :         1         3.425|
 |plot: main                                        :         1         5.910|
 *---------------------------------------------------------------------------*
 
 All done: wannier90 exiting
