 
             +---------------------------------------------------+
             |                                                   |
             |                   WANNIER90                       |
             |                                                   |
             +---------------------------------------------------+
             |                                                   |
             |        Welcome to the Maximally-Localized         |
             |        Generalized Wannier Functions code         |
             |            http://www.wannier.org                 |
             |                                                   |
             |                                                   |
             |  Wannier90 Developer Group:                       |
             |    Giovanni Pizzi    (EPFL)                       |
             |    Valerio Vitale    (Cambridge)                  |
             |    David Vanderbilt  (Rutgers University)         |
             |    Nicola Marzari    (EPFL)                       |
             |    Ivo Souza         (Universidad del Pais Vasco) |
             |    Arash A. Mostofi  (Imperial College London)    |
             |    Jonathan R. Yates (University of Oxford)       |
             |                                                   |
             |  For the full list of Wannier90 3.x authors,      |
             |  please check the code documentation and the      |
             |  README on the GitHub page of the code            |
             |                                                   |
             |                                                   |
             |  Please cite                                      |
             |                                                   |
             |  [ref] "Wannier90 as a community code:            |
             |        new features and applications",            |
             |        G. Pizzi et al., J. Phys. Cond. Matt. 32,  |
             |        165902 (2020).                             |
             |        http://doi.org/10.1088/1361-648X/ab51ff    |
             |                                                   |
             |  in any publications arising from the use of      |
             |  this code. For the method please cite            |
             |                                                   |
             |  [ref] "Maximally Localized Generalised Wannier   |
             |         Functions for Composite Energy Bands"     |
             |         N. Marzari and D. Vanderbilt              |
             |         Phys. Rev. B 56 12847 (1997)              |
             |                                                   |
             |  [ref] "Maximally Localized Wannier Functions     |
             |         for Entangled Energy Bands"               |
             |         I. Souza, N. Marzari and D. Vanderbilt    |
             |         Phys. Rev. B 65 035109 (2001)             |
             |                                                   |
             |                                                   |
             | Copyright (c) 1996-2020                           |
             |        The Wannier90 Developer Group and          |
             |        individual contributors                    |
             |                                                   |
             |      Release: 3.1.0        5th March    2020      |
             |                                                   |
             | This program is free software; you can            |
             | redistribute it and/or modify it under the terms  |
             | of the GNU General Public License as published by |
             | the Free Software Foundation; either version 2 of |
             | the License, or (at your option) any later version|
             |                                                   |
             | This program is distributed in the hope that it   |
             | will be useful, but WITHOUT ANY WARRANTY; without |
             | even the implied warranty of MERCHANTABILITY or   |
             | FITNESS FOR A PARTICULAR PURPOSE. See the GNU     |
             | General Public License for more details.          |
             |                                                   |
             | You should have received a copy of the GNU General|
             | Public License along with this program; if not,   |
             | write to the Free Software Foundation, Inc.,      |
             | 675 Mass Ave, Cambridge, MA 02139, USA.           |
             |                                                   |
             +---------------------------------------------------+
             |    Execution started on 19Apr2025 at 18:18:52     |
             +---------------------------------------------------+
 
 ******************************************************************************
 * -> Using CODATA 2006 constant values                                       *
 *    (http://physics.nist.gov/cuu/Constants/index.html)                      *
 * -> Using Bohr value from CODATA                                            *
 ******************************************************************************
 

 Running in serial (with serial executable)
 
                                    ------
                                    SYSTEM
                                    ------
 
                              Lattice Vectors (Ang)
                    a_1     3.866975   0.000000   0.000000
                    a_2     1.933487   3.348898   0.000000
                    a_3     1.933487   1.116299   3.157372
 
                   Unit Cell Volume:      40.88829  (Ang^3)
 
                        Reciprocal-Space Vectors (Ang^-1)
                    b_1     1.624832  -0.938097  -0.663335
                    b_2     0.000000   1.876195  -0.663335
                    b_3     0.000000   0.000000   1.990005
  
 *----------------------------------------------------------------------------*
 |   Site       Fractional Coordinate          Cartesian Coordinate (Ang)     |
 +----------------------------------------------------------------------------+
 | Si   1   0.75000   0.75000   0.75000   |    5.80046   3.34890   2.36803    |
 | Si   2   0.50000   0.50000   0.50000   |    3.86697   2.23260   1.57869    |
 *----------------------------------------------------------------------------*
                                ------------
                                K-POINT GRID
                                ------------
  
             Grid size =  8 x  8 x  8      Total points =  512
  
  
 *---------------------------------- MAIN ------------------------------------*
 |  Number of Wannier Functions               :                16             |
 |  Number of Objective Wannier Functions     :                16             |
 |  Number of input Bloch states              :                32             |
 |  Output verbosity (1=low, 5=high)          :                 1             |
 |  Timing Level (1=low, 5=high)              :                 1             |
 |  Optimisation (0=memory, 3=speed)          :                 3             |
 |  Length Unit                               :               Ang             |
 |  Post-processing setup (write *.nnkp)      :                 F             |
 |  Using Gamma-only branch of algorithms     :                 F             |
 *----------------------------------------------------------------------------*
 *------------------------------- WANNIERISE ---------------------------------*
 |  Total number of iterations                :               100             |
 |  Number of CG steps before reset           :                 5             |
 |  Trial step length for line search         :             2.000             |
 |  Convergence tolerence                     :         0.100E-09             |
 |  Convergence window                        :                -1             |
 |  Iterations between writing output         :                 1             |
 |  Iterations between backing up to disk     :               100             |
 |  Write r^2_nm to file                      :                 F             |
 |  Write xyz WF centres to file              :                 F             |
 |  Write on-site energies <0n|H|0n> to file  :                 F             |
 |  Use guiding centre to control phases      :                 F             |
 |  Use phases for initial projections        :                 F             |
 *----------------------------------------------------------------------------*
 *------------------------------- DISENTANGLE --------------------------------*
 |  Using band disentanglement                :                 T             |
 |  Total number of iterations                :               200             |
 |  Mixing ratio                              :             0.500             |
 |  Convergence tolerence                     :         1.000E-10             |
 |  Convergence window                        :                 3             |
 *----------------------------------------------------------------------------*
 *-------------------------------- PLOTTING ----------------------------------*
 |  Plotting Hamiltonian in WF basis          :                 T             |
 *----------------------------------------------------------------------------*
 Time to read parameters        0.056 (sec)

 *---------------------------------- K-MESH ----------------------------------*
 +----------------------------------------------------------------------------+
 |                    Distance to Nearest-Neighbour Shells                    |
 |                    ------------------------------------                    |
 |          Shell             Distance (Ang^-1)          Multiplicity         |
 |          -----             -----------------          ------------         |
 |             1                   0.248751                      8            |
 |             2                   0.287232                      6            |
 |             3                   0.406208                     12            |
 |             4                   0.476321                     24            |
 |             5                   0.497501                      8            |
 |             6                   0.574465                      6            |
 |             7                   0.626009                     24            |
 |             8                   0.642271                     24            |
 |             9                   0.703573                     24            |
 |            10                   0.746252                     32            |
 |            11                   0.812416                     12            |
 |            12                   0.849645                     48            |
 |            13                   0.861697                     30            |
 |            14                   0.908309                     24            |
 |            15                   0.941755                     24            |
 |            16                   0.952642                     24            |
 |            17                   0.995003                      8            |
 |            18                   1.025625                     48            |
 |            19                   1.035631                     24            |
 |            20                   1.074726                     48            |
 |            21                   1.103137                     72            |
 |            22                   1.148930                      6            |
 |            23                   1.175550                     24            |
 |            24                   1.184290                     48            |
 |            25                   1.218624                     36            |
 |            26                   1.243753                     56            |
 |            27                   1.252017                     24            |
 |            28                   1.284543                     24            |
 |            29                   1.308406                     72            |
 |            30                   1.316265                     48            |
 |            31                   1.347240                     24            |
 |            32                   1.370012                     48            |
 |            33                   1.407146                     24            |
 |            34                   1.428964                     72            |
 |            35                   1.436162                     30            |
 |            36                   1.464604                     72            |
 +----------------------------------------------------------------------------+
 | The b-vectors are chosen automatically                                     |
 | The following shells are used:   1                                         |
 +----------------------------------------------------------------------------+
 |                        Shell   # Nearest-Neighbours                        |
 |                        -----   --------------------                        |
 |                          1               8                                 |
 +----------------------------------------------------------------------------+
 | Completeness relation is fully satisfied [Eq. (B1), PRB 56, 12847 (1997)]  |
 +----------------------------------------------------------------------------+
 |                  b_k Vectors (Ang^-1) and Weights (Ang^2)                  |
 |                  ----------------------------------------                  |
 |            No.         b_k(x)      b_k(y)      b_k(z)        w_b           |
 |            ---        --------------------------------     --------        |
 |             1         0.000000    0.000000    0.248751     6.060422        |
 |             2         0.000000    0.234524   -0.082917     6.060422        |
 |             3         0.203104   -0.117262   -0.082917     6.060422        |
 |             4         0.203104    0.117262    0.082917     6.060422        |
 |             5         0.000000    0.000000   -0.248751     6.060422        |
 |             6         0.000000   -0.234524    0.082917     6.060422        |
 |             7        -0.203104    0.117262    0.082917     6.060422        |
 |             8        -0.203104   -0.117262   -0.082917     6.060422        |
 +----------------------------------------------------------------------------+
 |                           b_k Directions (Ang^-1)                          |
 |                           -----------------------                          |
 |            No.           x           y           z                         |
 |            ---        --------------------------------                     |
 |             1         0.000000    0.000000    0.248751                     |
 |             2         0.000000    0.234524   -0.082917                     |
 |             3         0.203104   -0.117262   -0.082917                     |
 |             4         0.203104    0.117262    0.082917                     |
 +----------------------------------------------------------------------------+
  
 Time to get kmesh              0.211 (sec)
 *============================================================================*
 |                              MEMORY ESTIMATE                               |
 |         Maximum RAM allocated during each phase of the calculation         |
 *============================================================================*
 |                        Disentanglement           90.65 Mb                  |
 |                            Wannierise:           46.86 Mb                  |
 |                          plot_wannier:           46.86 Mb                  |
 *----------------------------------------------------------------------------*
  
 Starting a new Wannier90 calculation ...


 Reading overlaps from aiida.mmn    :  Created on 19Apr2025 at 18:17:41

 Reading projections from aiida.amn :  Created on 19Apr2025 at 18:17:37

 Time to read overlaps          4.369 (sec)

 *------------------------------- DISENTANGLE --------------------------------*
 +----------------------------------------------------------------------------+
 |                              Energy  Windows                               |
 |                              ---------------                               |
 |                   Outer:   -5.79559  to   29.13181  (eV)                   |
 |                   Inner:   -5.79559  to    7.06340  (eV)                   |
 +----------------------------------------------------------------------------+
   Number of target bands to extract:   16

                   Unitarised projection of Wannier functions                  
                   ------------------------------------------                  
   A_mn = <psi_m|g_n> --> S = A.A^+ --> U = S^-1/2.A
   In dis_project... done
   Using an inner window (linner = T)
   In dis_proj_froz... done

                   Extraction of optimally-connected subspace                  
                   ------------------------------------------                  
 +---------------------------------------------------------------------+<-- DIS
 |  Iter     Omega_I(i-1)      Omega_I(i)      Delta (frac.)    Time   |<-- DIS
 +---------------------------------------------------------------------+<-- DIS
       1      30.24626327      26.34526671       1.481E-01      0.00    <-- DIS
       2      27.57428423      25.19645504       9.437E-02      0.17    <-- DIS
       3      26.15063739      24.41426387       7.112E-02      0.34    <-- DIS
       4      25.08038639      23.81482363       5.314E-02      0.51    <-- DIS
       5      24.27609649      23.33863461       4.017E-02      0.68    <-- DIS
       6      23.66020942      22.95125866       3.089E-02      0.85    <-- DIS
       7      23.17794518      22.63048960       2.419E-02      1.02    <-- DIS
       8      22.79211060      22.36120264       1.927E-02      1.18    <-- DIS
       9      22.47749342      22.13265677       1.558E-02      1.35    <-- DIS
      10      22.21677554      21.93695814       1.276E-02      1.52    <-- DIS
      11      21.99781294      21.76813871       1.055E-02      1.69    <-- DIS
      12      21.81188073      21.62157991       8.801E-03      1.86    <-- DIS
      13      21.65255050      21.49363832       7.393E-03      2.03    <-- DIS
      14      21.51496946      21.38139428       6.247E-03      2.20    <-- DIS
      15      21.39539237      21.28247765       5.306E-03      2.37    <-- DIS
      16      21.29087228      21.19494378       4.526E-03      2.54    <-- DIS
      17      21.19905192      21.11718294       3.877E-03      2.71    <-- DIS
      18      21.11801974      21.04785266       3.334E-03      2.88    <-- DIS
      19      21.04620797      20.98582628       2.877E-03      3.05    <-- DIS
      20      20.98231874      20.93015308       2.492E-03      3.22    <-- DIS
      21      20.92526934      20.88002694       2.167E-03      3.39    <-- DIS
      22      20.87415064      20.83476148       1.891E-03      3.56    <-- DIS
      23      20.82819507      20.79376996       1.656E-03      3.73    <-- DIS
      24      20.78675148      20.75654906       1.455E-03      3.90    <-- DIS
      25      20.74926515      20.72266555       1.284E-03      4.07    <-- DIS
      26      20.71526173      20.69174535       1.137E-03      4.24    <-- DIS
      27      20.68433412      20.66346449       1.010E-03      4.40    <-- DIS
      28      20.65613181      20.63754153       9.008E-04      4.57    <-- DIS
      29      20.63035209      20.61373126       8.063E-04      4.74    <-- DIS
      30      20.60673268      20.59181944       7.242E-04      4.91    <-- DIS
      31      20.58504569      20.57161836       6.527E-04      5.08    <-- DIS
      32      20.56509251      20.55296306       5.902E-04      5.25    <-- DIS
      33      20.54669956      20.53570815       5.352E-04      5.42    <-- DIS
      34      20.52971468      20.51972518       4.868E-04      5.59    <-- DIS
      35      20.51400409      20.50490029       4.440E-04      5.76    <-- DIS
      36      20.49944984      20.49113227       4.059E-04      5.93    <-- DIS
      37      20.48594763      20.47833095       3.719E-04      6.10    <-- DIS
      38      20.47340494      20.46641571       3.415E-04      6.27    <-- DIS
      39      20.46173949      20.45531432       3.141E-04      6.44    <-- DIS
      40      20.45087787      20.44496185       2.894E-04      6.62    <-- DIS
      41      20.44075439      20.43529979       2.669E-04      6.79    <-- DIS
      42      20.43131012      20.42627530       2.465E-04      6.96    <-- DIS
      43      20.42249203      20.41784048       2.278E-04      7.13    <-- DIS
      44      20.41425225      20.40995188       2.107E-04      7.30    <-- DIS
      45      20.40654750      20.40256992       1.950E-04      7.47    <-- DIS
      46      20.39933848      20.39565848       1.804E-04      7.64    <-- DIS
      47      20.39258946      20.38918455       1.670E-04      7.81    <-- DIS
      48      20.38626786      20.38311788       1.545E-04      7.98    <-- DIS
      49      20.38034389      20.37743068       1.430E-04      8.15    <-- DIS
      50      20.37479027      20.37209739       1.322E-04      8.32    <-- DIS
      51      20.36958195      20.36709445       1.221E-04      8.49    <-- DIS
      52      20.36469587      20.36240010       1.127E-04      8.66    <-- DIS
      53      20.36011078      20.35799423       1.040E-04      8.83    <-- DIS
      54      20.35580706      20.35385820       9.575E-05      9.00    <-- DIS
      55      20.35176655      20.34997472       8.805E-05      9.17    <-- DIS
      56      20.34797243      20.34632775       8.083E-05      9.34    <-- DIS
      57      20.34440908      20.34290236       7.407E-05      9.52    <-- DIS
      58      20.34106200      20.33968465       6.772E-05      9.69    <-- DIS
      59      20.33791767      20.33666168       6.176E-05      9.86    <-- DIS
      60      20.33496353      20.33382137       5.617E-05     10.03    <-- DIS
      61      20.33218783      20.33115244       5.093E-05     10.20    <-- DIS
      62      20.32957962      20.32864436       4.601E-05     10.37    <-- DIS
      63      20.32712868      20.32628728       4.139E-05     10.54    <-- DIS
      64      20.32482543      20.32407199       3.707E-05     10.71    <-- DIS
      65      20.32266091      20.32198985       3.302E-05     10.88    <-- DIS
      66      20.32062674      20.32003279       2.923E-05     11.05    <-- DIS
      67      20.31871505      20.31819324       2.568E-05     11.22    <-- DIS
      68      20.31691848      20.31646410       2.237E-05     11.39    <-- DIS
      69      20.31523011      20.31483871       1.927E-05     11.56    <-- DIS
      70      20.31364346      20.31331082       1.638E-05     11.73    <-- DIS
      71      20.31215244      20.31187457       1.368E-05     11.90    <-- DIS
      72      20.31075132      20.31052445       1.117E-05     12.07    <-- DIS
      73      20.30943474      20.30925530       8.835E-06     12.24    <-- DIS
      74      20.30819765      20.30806227       6.666E-06     12.41    <-- DIS
      75      20.30703530      20.30694079       4.654E-06     12.58    <-- DIS
      76      20.30594323      20.30588658       2.790E-06     12.75    <-- DIS
      77      20.30491725      20.30489561       1.066E-06     12.92    <-- DIS
      78      20.30395342      20.30396409      -5.258E-07     13.09    <-- DIS
      79      20.30304802      20.30308848      -1.993E-06     13.27    <-- DIS
      80      20.30219757      20.30226543      -3.342E-06     13.44    <-- DIS
      81      20.30139879      20.30149179      -4.581E-06     13.61    <-- DIS
      82      20.30064859      20.30076460      -5.715E-06     13.78    <-- DIS
      83      20.29994408      20.30008110      -6.750E-06     13.95    <-- DIS
      84      20.29928250      20.29943867      -7.693E-06     14.12    <-- DIS
      85      20.29866131      20.29883485      -8.549E-06     14.29    <-- DIS
      86      20.29807807      20.29826732      -9.324E-06     14.46    <-- DIS
      87      20.29753052      20.29773393      -1.002E-05     14.63    <-- DIS
      88      20.29701652      20.29723262      -1.065E-05     14.80    <-- DIS
      89      20.29653404      20.29676148      -1.121E-05     14.97    <-- DIS
      90      20.29608120      20.29631869      -1.170E-05     15.14    <-- DIS
      91      20.29565622      20.29590257      -1.214E-05     15.31    <-- DIS
      92      20.29525741      20.29551150      -1.252E-05     15.48    <-- DIS
      93      20.29488320      20.29514399      -1.285E-05     15.65    <-- DIS
      94      20.29453212      20.29479863      -1.313E-05     15.82    <-- DIS
      95      20.29420275      20.29447409      -1.337E-05     15.99    <-- DIS
      96      20.29389379      20.29416912      -1.357E-05     16.16    <-- DIS
      97      20.29360401      20.29388254      -1.372E-05     16.33    <-- DIS
      98      20.29333224      20.29361324      -1.385E-05     16.50    <-- DIS
      99      20.29307739      20.29336021      -1.394E-05     16.67    <-- DIS
     100      20.29283844      20.29312244      -1.399E-05     16.84    <-- DIS
     101      20.29261441      20.29289903      -1.403E-05     17.01    <-- DIS
     102      20.29240441      20.29268911      -1.403E-05     17.18    <-- DIS
     103      20.29220757      20.29249188      -1.401E-05     17.35    <-- DIS
     104      20.29202309      20.29230656      -1.397E-05     17.52    <-- DIS
     105      20.29185023      20.29213245      -1.391E-05     17.69    <-- DIS
     106      20.29168826      20.29196886      -1.383E-05     17.86    <-- DIS
     107      20.29153653      20.29181516      -1.373E-05     18.03    <-- DIS
     108      20.29139440      20.29167076      -1.362E-05     18.20    <-- DIS
     109      20.29126128      20.29153510      -1.349E-05     18.37    <-- DIS
     110      20.29113663      20.29140764      -1.336E-05     18.54    <-- DIS
     111      20.29101992      20.29128790      -1.321E-05     18.72    <-- DIS
     112      20.29091066      20.29117541      -1.305E-05     18.89    <-- DIS
     113      20.29080840      20.29106973      -1.288E-05     19.06    <-- DIS
     114      20.29071269      20.29097044      -1.270E-05     19.23    <-- DIS
     115      20.29062315      20.29087718      -1.252E-05     19.40    <-- DIS
     116      20.29053937      20.29078956      -1.233E-05     19.57    <-- DIS
     117      20.29046101      20.29070725      -1.214E-05     19.74    <-- DIS
     118      20.29038774      20.29062993      -1.194E-05     19.91    <-- DIS
     119      20.29031922      20.29055730      -1.173E-05     20.08    <-- DIS
     120      20.29025517      20.29048907      -1.153E-05     20.25    <-- DIS
     121      20.29019531      20.29042498      -1.132E-05     20.42    <-- DIS
     122      20.29013938      20.29036478      -1.111E-05     20.59    <-- DIS
     123      20.29008712      20.29030822      -1.090E-05     20.76    <-- DIS
     124      20.29003832      20.29025510      -1.068E-05     20.93    <-- DIS
     125      20.28999275      20.29020520      -1.047E-05     21.11    <-- DIS
     126      20.28995021      20.29015833      -1.026E-05     21.28    <-- DIS
     127      20.28991051      20.29011430      -1.004E-05     21.45    <-- DIS
     128      20.28987347      20.29007295      -9.831E-06     21.62    <-- DIS
     129      20.28983892      20.29003411      -9.620E-06     21.79    <-- DIS
     130      20.28980670      20.28999762      -9.410E-06     21.96    <-- DIS
     131      20.28977667      20.28996335      -9.201E-06     22.13    <-- DIS
     132      20.28974868      20.28993116      -8.994E-06     22.30    <-- DIS
     133      20.28972261      20.28990093      -8.788E-06     22.47    <-- DIS
     134      20.28969833      20.28987253      -8.585E-06     22.64    <-- DIS
     135      20.28967573      20.28984586      -8.385E-06     22.81    <-- DIS
     136      20.28965471      20.28982081      -8.186E-06     22.98    <-- DIS
     137      20.28963515      20.28979728      -7.991E-06     23.15    <-- DIS
     138      20.28961696      20.28977518      -7.798E-06     23.32    <-- DIS
     139      20.28960006      20.28975442      -7.608E-06     23.49    <-- DIS
     140      20.28958437      20.28973493      -7.420E-06     23.66    <-- DIS
     141      20.28956980      20.28971662      -7.236E-06     23.83    <-- DIS
     142      20.28955628      20.28969942      -7.055E-06     24.00    <-- DIS
     143      20.28954374      20.28968327      -6.877E-06     24.18    <-- DIS
     144      20.28953212      20.28966810      -6.702E-06     24.35    <-- DIS
     145      20.28952135      20.28965385      -6.530E-06     24.52    <-- DIS
     146      20.28951139      20.28964047      -6.362E-06     24.69    <-- DIS
     147      20.28950217      20.28962790      -6.197E-06     24.86    <-- DIS
     148      20.28949366      20.28961610      -6.035E-06     25.03    <-- DIS
     149      20.28948579      20.28960501      -5.876E-06     25.20    <-- DIS
     150      20.28947853      20.28959460      -5.721E-06     25.37    <-- DIS
     151      20.28947184      20.28958483      -5.568E-06     25.54    <-- DIS
     152      20.28946568      20.28957564      -5.420E-06     25.71    <-- DIS
     153      20.28946001      20.28956702      -5.274E-06     25.88    <-- DIS
     154      20.28945481      20.28955892      -5.131E-06     26.05    <-- DIS
     155      20.28945002      20.28955131      -4.992E-06     26.22    <-- DIS
     156      20.28944564      20.28954417      -4.856E-06     26.39    <-- DIS
     157      20.28944163      20.28953746      -4.723E-06     26.56    <-- DIS
     158      20.28943797      20.28953116      -4.593E-06     26.73    <-- DIS
     159      20.28943462      20.28952524      -4.466E-06     26.90    <-- DIS
     160      20.28943158      20.28951968      -4.343E-06     27.07    <-- DIS
     161      20.28942881      20.28951447      -4.222E-06     27.24    <-- DIS
     162      20.28942630      20.28950956      -4.104E-06     27.41    <-- DIS
     163      20.28942403      20.28950496      -3.989E-06     27.58    <-- DIS
     164      20.28942198      20.28950064      -3.877E-06     27.75    <-- DIS
     165      20.28942014      20.28949658      -3.767E-06     27.92    <-- DIS
     166      20.28941849      20.28949277      -3.661E-06     28.09    <-- DIS
     167      20.28941702      20.28948919      -3.557E-06     28.26    <-- DIS
     168      20.28941571      20.28948582      -3.456E-06     28.44    <-- DIS
     169      20.28941455      20.28948267      -3.357E-06     28.61    <-- DIS
     170      20.28941354      20.28947970      -3.261E-06     28.78    <-- DIS
     171      20.28941265      20.28947692      -3.168E-06     28.95    <-- DIS
     172      20.28941188      20.28947430      -3.076E-06     29.12    <-- DIS
     173      20.28941122      20.28947184      -2.988E-06     29.29    <-- DIS
     174      20.28941067      20.28946954      -2.901E-06     29.46    <-- DIS
     175      20.28941021      20.28946737      -2.817E-06     29.63    <-- DIS
     176      20.28940983      20.28946534      -2.736E-06     29.80    <-- DIS
     177      20.28940954      20.28946343      -2.656E-06     29.97    <-- DIS
     178      20.28940931      20.28946163      -2.579E-06     30.14    <-- DIS
     179      20.28940915      20.28945995      -2.503E-06     30.31    <-- DIS
     180      20.28940906      20.28945837      -2.430E-06     30.48    <-- DIS
     181      20.28940902      20.28945688      -2.359E-06     30.65    <-- DIS
     182      20.28940903      20.28945548      -2.290E-06     30.82    <-- DIS
     183      20.28940908      20.28945417      -2.222E-06     30.99    <-- DIS
     184      20.28940918      20.28945294      -2.157E-06     31.16    <-- DIS
     185      20.28940932      20.28945179      -2.093E-06     31.33    <-- DIS
     186      20.28940949      20.28945070      -2.031E-06     31.50    <-- DIS
     187      20.28940969      20.28944968      -1.971E-06     31.67    <-- DIS
     188      20.28940991      20.28944873      -1.913E-06     31.84    <-- DIS
     189      20.28941017      20.28944783      -1.856E-06     32.01    <-- DIS
     190      20.28941044      20.28944698      -1.801E-06     32.18    <-- DIS
     191      20.28941074      20.28944619      -1.748E-06     32.35    <-- DIS
     192      20.28941105      20.28944545      -1.695E-06     32.52    <-- DIS
     193      20.28941137      20.28944475      -1.645E-06     32.69    <-- DIS
     194      20.28941171      20.28944409      -1.596E-06     32.87    <-- DIS
     195      20.28941207      20.28944348      -1.548E-06     33.04    <-- DIS
     196      20.28941243      20.28944290      -1.502E-06     33.21    <-- DIS
     197      20.28941280      20.28944235      -1.457E-06     33.38    <-- DIS
     198      20.28941317      20.28944184      -1.413E-06     33.55    <-- DIS
     199      20.28941355      20.28944136      -1.371E-06     33.72    <-- DIS
     200      20.28941394      20.28944091      -1.330E-06     33.89    <-- DIS

     <<< Warning: Maximum number of disentanglement iterations reached >>>
          <<< Disentanglement convergence criteria not satisfied >>>

        Final Omega_I    20.28944091 (Ang^2)

 +----------------------------------------------------------------------------+

 Time to disentangle bands     34.261 (sec)

 Writing checkpoint file aiida.chk... done

 
 *------------------------------- WANNIERISE ---------------------------------*
 +--------------------------------------------------------------------+<-- CONV
 | Iter  Delta Spread     RMS Gradient      Spread (Ang^2)      Time  |<-- CONV
 +--------------------------------------------------------------------+<-- CONV
 
 ------------------------------------------------------------------------------
 Initial State
  WF centre and spread    1  (  5.800461,  3.348898,  2.368029 )     1.76302007
  WF centre and spread    2  (  5.800462,  3.348898,  2.368028 )     1.76302038
  WF centre and spread    3  (  5.800460,  3.348900,  2.148018 )     2.06467493
  WF centre and spread    4  (  5.800464,  3.348896,  2.148012 )     2.06466500
  WF centre and spread    5  (  5.800464,  3.502918,  2.476937 )     2.07675687
  WF centre and spread    6  (  5.800463,  3.502919,  2.476935 )     2.07676187
  WF centre and spread    7  (  5.800458,  3.193295,  2.476914 )     2.07680234
  WF centre and spread    8  (  5.800459,  3.193290,  2.476911 )     2.07680332
  WF centre and spread    9  (  3.866974,  2.232599,  1.578686 )     1.76301865
  WF centre and spread   10  (  3.866975,  2.232598,  1.578685 )     1.76302012
  WF centre and spread   11  (  3.866971,  2.232597,  1.798705 )     2.06466294
  WF centre and spread   12  (  3.866971,  2.232597,  1.798698 )     2.06467395
  WF centre and spread   13  (  3.866969,  2.078579,  1.469780 )     2.07675569
  WF centre and spread   14  (  3.866976,  2.078576,  1.469774 )     2.07675528
  WF centre and spread   15  (  3.866976,  2.388208,  1.469802 )     2.07680032
  WF centre and spread   16  (  3.866980,  2.388203,  1.469800 )     2.07680200
  Sum of centres and spreads ( 77.339485, 44.651972, 31.573715 )    31.92499374
 
      0     0.319E+02     0.0000000000       31.9249937420      34.29  <-- CONV
        O_D=      0.1478513 O_OD=     11.4877015 O_TOT=     31.9249937 <-- SPRD
 ------------------------------------------------------------------------------
 Cycle:      1
  WF centre and spread    1  (  5.800461,  3.353933,  2.375137 )     1.67436545
  WF centre and spread    2  (  5.800462,  3.353933,  2.375136 )     1.67436575
  WF centre and spread    3  (  5.800460,  3.349052,  2.134448 )     2.06526200
  WF centre and spread    4  (  5.800464,  3.349047,  2.134441 )     2.06525253
  WF centre and spread    5  (  5.800464,  3.507197,  2.479944 )     2.08209104
  WF centre and spread    6  (  5.800463,  3.507198,  2.479942 )     2.08209591
  WF centre and spread    7  (  5.800458,  3.183531,  2.479963 )     2.08011992
  WF centre and spread    8  (  5.800459,  3.183526,  2.479960 )     2.08012073
  WF centre and spread    9  (  3.866975,  2.227564,  1.571578 )     1.67436450
  WF centre and spread   10  (  3.866975,  2.227563,  1.571578 )     1.67436556
  WF centre and spread   11  (  3.866971,  2.232446,  1.812276 )     2.06525067
  WF centre and spread   12  (  3.866971,  2.232445,  1.812269 )     2.06526103
  WF centre and spread   13  (  3.866969,  2.074299,  1.466773 )     2.08208970
  WF centre and spread   14  (  3.866976,  2.074297,  1.466767 )     2.08208993
  WF centre and spread   15  (  3.866976,  2.397972,  1.466753 )     2.08011830
  WF centre and spread   16  (  3.866981,  2.397967,  1.466751 )     2.08011952
  Sum of centres and spreads ( 77.339485, 44.651972, 31.573715 )    31.60733255
 
      1    -0.318E+00     0.2450251864       31.6073325546      34.41  <-- CONV
        O_D=      0.1665386 O_OD=     11.1513531 O_TOT=     31.6073326 <-- SPRD
 Delta: O_D=  0.1868727E-01 O_OD= -0.3363485E+00 O_TOT= -0.3176612E+00 <-- DLTA
 ------------------------------------------------------------------------------
 Cycle:      2
  WF centre and spread    1  (  5.800461,  3.365046,  2.390714 )     1.54510225
  WF centre and spread    2  (  5.800462,  3.365047,  2.390714 )     1.54510256
  WF centre and spread    3  (  5.800460,  3.349377,  2.111126 )     2.06664799
  WF centre and spread    4  (  5.800465,  3.349371,  2.111119 )     2.06664013
  WF centre and spread    5  (  5.800465,  3.512515,  2.483690 )     2.09212172
  WF centre and spread    6  (  5.800463,  3.512516,  2.483688 )     2.09212638
  WF centre and spread    7  (  5.800458,  3.166655,  2.483833 )     2.08597414
  WF centre and spread    8  (  5.800458,  3.166650,  2.483830 )     2.08597486
  WF centre and spread    9  (  3.866975,  2.216450,  1.556000 )     1.54510191
  WF centre and spread   10  (  3.866974,  2.216450,  1.556000 )     1.54510243
  WF centre and spread   11  (  3.866971,  2.232121,  1.835598 )     2.06663814
  WF centre and spread   12  (  3.866971,  2.232121,  1.835590 )     2.06664775
  WF centre and spread   13  (  3.866968,  2.068981,  1.463027 )     2.09212011
  WF centre and spread   14  (  3.866976,  2.068978,  1.463021 )     2.09212128
  WF centre and spread   15  (  3.866976,  2.414848,  1.462884 )     2.08597318
  WF centre and spread   16  (  3.866981,  2.414843,  1.462882 )     2.08597386
  Sum of centres and spreads ( 77.339485, 44.651972, 31.573715 )    31.15936869
 
      2    -0.448E+00     0.3565739541       31.1593686918      34.50  <-- CONV
        O_D=      0.1737787 O_OD=     10.6961491 O_TOT=     31.1593687 <-- SPRD
 Delta: O_D=  0.7240146E-02 O_OD= -0.4552040E+00 O_TOT= -0.4479639E+00 <-- DLTA
 ------------------------------------------------------------------------------
 Cycle:      3
  WF centre and spread    1  (  5.800461,  3.371295,  2.399393 )     1.50036691
  WF centre and spread    2  (  5.800462,  3.371295,  2.399393 )     1.50036745
  WF centre and spread    3  (  5.800460,  3.349532,  2.100777 )     2.06482674
  WF centre and spread    4  (  5.800465,  3.349527,  2.100770 )     2.06481896
  WF centre and spread    5  (  5.800465,  3.513716,  2.484537 )     2.09474375
  WF centre and spread    6  (  5.800464,  3.513717,  2.484535 )     2.09474824
  WF centre and spread    7  (  5.800458,  3.159107,  2.484757 )     2.08624809
  WF centre and spread    8  (  5.800458,  3.159101,  2.484754 )     2.08624874
  WF centre and spread    9  (  3.866975,  2.210201,  1.547321 )     1.50036688
  WF centre and spread   10  (  3.866974,  2.210202,  1.547321 )     1.50036727
  WF centre and spread   11  (  3.866971,  2.231965,  1.845947 )     2.06481713
  WF centre and spread   12  (  3.866971,  2.231965,  1.845939 )     2.06482656
  WF centre and spread   13  (  3.866968,  2.067780,  1.462180 )     2.09474218
  WF centre and spread   14  (  3.866976,  2.067778,  1.462174 )     2.09474357
  WF centre and spread   15  (  3.866976,  2.422397,  1.461959 )     2.08624718
  WF centre and spread   16  (  3.866981,  2.422392,  1.461957 )     2.08624780
  Sum of centres and spreads ( 77.339485, 44.651972, 31.573715 )    30.98472745
 
      3    -0.175E+00     0.3441701383       30.9847274517      34.59  <-- CONV
        O_D=      0.1692936 O_OD=     10.5259929 O_TOT=     30.9847275 <-- SPRD
 Delta: O_D= -0.4485134E-02 O_OD= -0.1701561E+00 O_TOT= -0.1746412E+00 <-- DLTA
 ------------------------------------------------------------------------------
 Cycle:      4
  WF centre and spread    1  (  5.800461,  3.376630,  2.406727 )     1.48466581
  WF centre and spread    2  (  5.800462,  3.376631,  2.406728 )     1.48466634
  WF centre and spread    3  (  5.800460,  3.349636,  2.092963 )     2.06229149
  WF centre and spread    4  (  5.800465,  3.349631,  2.092956 )     2.06228363
  WF centre and spread    5  (  5.800465,  3.514004,  2.484742 )     2.09618545
  WF centre and spread    6  (  5.800464,  3.514005,  2.484740 )     2.09618994
  WF centre and spread    7  (  5.800458,  3.153355,  2.485014 )     2.08548839
  WF centre and spread    8  (  5.800458,  3.153349,  2.485011 )     2.08548893
  WF centre and spread    9  (  3.866975,  2.204866,  1.539986 )     1.48466586
  WF centre and spread   10  (  3.866974,  2.204867,  1.539987 )     1.48466619
  WF centre and spread   11  (  3.866971,  2.231862,  1.853762 )     2.06228192
  WF centre and spread   12  (  3.866971,  2.231861,  1.853754 )     2.06229126
  WF centre and spread   13  (  3.866968,  2.067492,  1.461974 )     2.09618402
  WF centre and spread   14  (  3.866976,  2.067490,  1.461969 )     2.09618559
  WF centre and spread   15  (  3.866976,  2.428149,  1.461703 )     2.08548741
  WF centre and spread   16  (  3.866981,  2.428144,  1.461701 )     2.08548802
  Sum of centres and spreads ( 77.339485, 44.651972, 31.573715 )    30.91451026
 
      4    -0.702E-01     0.1816623961       30.9145102586      34.68  <-- CONV
        O_D=      0.1651278 O_OD=     10.4599416 O_TOT=     30.9145103 <-- SPRD
 Delta: O_D= -0.4165830E-02 O_OD= -0.6605136E-01 O_TOT= -0.7021719E-01 <-- DLTA
 ------------------------------------------------------------------------------
 Cycle:      5
  WF centre and spread    1  (  5.800461,  3.382532,  2.414768 )     1.47826138
  WF centre and spread    2  (  5.800462,  3.382533,  2.414768 )     1.47826194
  WF centre and spread    3  (  5.800460,  3.349723,  2.084684 )     2.05907524
  WF centre and spread    4  (  5.800465,  3.349718,  2.084677 )     2.05906732
  WF centre and spread    5  (  5.800465,  3.514049,  2.484776 )     2.09763858
  WF centre and spread    6  (  5.800464,  3.514050,  2.484775 )     2.09764303
  WF centre and spread    7  (  5.800458,  3.147223,  2.485098 )     2.08435229
  WF centre and spread    8  (  5.800458,  3.147217,  2.485095 )     2.08435270
  WF centre and spread    9  (  3.866976,  2.198964,  1.531946 )     1.47826149
  WF centre and spread   10  (  3.866974,  2.198964,  1.531947 )     1.47826177
  WF centre and spread   11  (  3.866971,  2.231775,  1.862040 )     2.05906553
  WF centre and spread   12  (  3.866971,  2.231774,  1.862032 )     2.05907498
  WF centre and spread   13  (  3.866968,  2.067447,  1.461940 )     2.09763715
  WF centre and spread   14  (  3.866976,  2.067445,  1.461934 )     2.09763882
  WF centre and spread   15  (  3.866976,  2.434282,  1.461618 )     2.08435120
  WF centre and spread   16  (  3.866981,  2.434276,  1.461616 )     2.08435187
  Sum of centres and spreads ( 77.339485, 44.651972, 31.573715 )    30.87729529
 
      5    -0.372E-01     0.1299042176       30.8772952883      34.77  <-- CONV
        O_D=      0.1617470 O_OD=     10.4261074 O_TOT=     30.8772953 <-- SPRD
 Delta: O_D= -0.3380786E-02 O_OD= -0.3383418E-01 O_TOT= -0.3721497E-01 <-- DLTA
 ------------------------------------------------------------------------------
 Cycle:      6
  WF centre and spread    1  (  5.800461,  3.395846,  2.432708 )     1.47305531
  WF centre and spread    2  (  5.800462,  3.395847,  2.432708 )     1.47305595
  WF centre and spread    3  (  5.800460,  3.349850,  2.066261 )     2.05137059
  WF centre and spread    4  (  5.800464,  3.349845,  2.066253 )     2.05136246
  WF centre and spread    5  (  5.800465,  3.514017,  2.484758 )     2.10102401
  WF centre and spread    6  (  5.800464,  3.514019,  2.484757 )     2.10102833
  WF centre and spread    7  (  5.800458,  3.133504,  2.485210 )     2.08158837
  WF centre and spread    8  (  5.800459,  3.133497,  2.485207 )     2.08158843
  WF centre and spread    9  (  3.866976,  2.185649,  1.514005 )     1.47305553
  WF centre and spread   10  (  3.866974,  2.185650,  1.514006 )     1.47305572
  WF centre and spread   11  (  3.866971,  2.231648,  1.880464 )     2.05136043
  WF centre and spread   12  (  3.866971,  2.231647,  1.880456 )     2.05137027
  WF centre and spread   13  (  3.866967,  2.067479,  1.461958 )     2.10102251
  WF centre and spread   14  (  3.866977,  2.067476,  1.461952 )     2.10102434
  WF centre and spread   15  (  3.866976,  2.448002,  1.461506 )     2.08158697
  WF centre and spread   16  (  3.866981,  2.447996,  1.461504 )     2.08158788
  Sum of centres and spreads ( 77.339485, 44.651972, 31.573715 )    30.82813709
 
      6    -0.492E-01     0.1145560864       30.8281370889      34.86  <-- CONV
        O_D=      0.1593974 O_OD=     10.3792988 O_TOT=     30.8281371 <-- SPRD
 Delta: O_D= -0.2349593E-02 O_OD= -0.4680861E-01 O_TOT= -0.4915820E-01 <-- DLTA
 ------------------------------------------------------------------------------
 Cycle:      7
  WF centre and spread    1  (  5.800461,  3.398143,  2.435740 )     1.47194370
  WF centre and spread    2  (  5.800462,  3.398145,  2.435741 )     1.47194437
  WF centre and spread    3  (  5.800460,  3.349864,  2.063139 )     2.04762890
  WF centre and spread    4  (  5.800464,  3.349859,  2.063132 )     2.04762066
  WF centre and spread    5  (  5.800465,  3.514012,  2.484755 )     2.09923438
  WF centre and spread    6  (  5.800464,  3.514014,  2.484754 )     2.09923865
  WF centre and spread    7  (  5.800458,  3.131140,  2.485231 )     2.07872822
  WF centre and spread    8  (  5.800459,  3.131133,  2.485228 )     2.07872821
  WF centre and spread    9  (  3.866976,  2.183352,  1.510973 )     1.47194396
  WF centre and spread   10  (  3.866974,  2.183353,  1.510974 )     1.47194412
  WF centre and spread   11  (  3.866971,  2.231634,  1.883586 )     2.04761860
  WF centre and spread   12  (  3.866971,  2.231633,  1.883577 )     2.04762857
  WF centre and spread   13  (  3.866967,  2.067484,  1.461961 )     2.09923284
  WF centre and spread   14  (  3.866977,  2.067481,  1.461956 )     2.09923468
  WF centre and spread   15  (  3.866976,  2.450365,  1.461485 )     2.07872676
  WF centre and spread   16  (  3.866981,  2.450359,  1.461484 )     2.07872769
  Sum of centres and spreads ( 77.339485, 44.651972, 31.573715 )    30.79012431
 
      7    -0.380E-01     0.1649387674       30.7901243128      34.96  <-- CONV
        O_D=      0.1566195 O_OD=     10.3440639 O_TOT=     30.7901243 <-- SPRD
 Delta: O_D= -0.2777873E-02 O_OD= -0.3523490E-01 O_TOT= -0.3801278E-01 <-- DLTA
 ------------------------------------------------------------------------------
 Cycle:      8
  WF centre and spread    1  (  5.800461,  3.406285,  2.446434 )     1.47382831
  WF centre and spread    2  (  5.800462,  3.406287,  2.446435 )     1.47382902
  WF centre and spread    3  (  5.800460,  3.349896,  2.052189 )     2.03975203
  WF centre and spread    4  (  5.800464,  3.349891,  2.052181 )     2.03974354
  WF centre and spread    5  (  5.800466,  3.513970,  2.484727 )     2.09844553
  WF centre and spread    6  (  5.800464,  3.513971,  2.484725 )     2.09844969
  WF centre and spread    7  (  5.800458,  3.122826,  2.485296 )     2.07402929
  WF centre and spread    8  (  5.800459,  3.122819,  2.485293 )     2.07402904
  WF centre and spread    9  (  3.866976,  2.175210,  1.500279 )     1.47382862
  WF centre and spread   10  (  3.866974,  2.175211,  1.500280 )     1.47382874
  WF centre and spread   11  (  3.866971,  2.231602,  1.894537 )     2.03974134
  WF centre and spread   12  (  3.866971,  2.231601,  1.894528 )     2.03975165
  WF centre and spread   13  (  3.866967,  2.067526,  1.461989 )     2.09844394
  WF centre and spread   14  (  3.866977,  2.067523,  1.461984 )     2.09844580
  WF centre and spread   15  (  3.866976,  2.458679,  1.461420 )     2.07402757
  WF centre and spread   16  (  3.866981,  2.458673,  1.461418 )     2.07402869
  Sum of centres and spreads ( 77.339485, 44.651972, 31.573715 )    30.74420280
 
      8    -0.459E-01     0.1197175441       30.7442028042      35.05  <-- CONV
        O_D=      0.1567377 O_OD=     10.2980242 O_TOT=     30.7442028 <-- SPRD
 Delta: O_D=  0.1182119E-03 O_OD= -0.4603972E-01 O_TOT= -0.4592151E-01 <-- DLTA
 ------------------------------------------------------------------------------
 Cycle:      9
  WF centre and spread    1  (  5.800460,  3.431830,  2.479501 )     1.48411206
  WF centre and spread    2  (  5.800461,  3.431833,  2.479503 )     1.48411286
  WF centre and spread    3  (  5.800460,  3.349863,  2.018517 )     2.01653934
  WF centre and spread    4  (  5.800464,  3.349857,  2.018509 )     2.01653012
  WF centre and spread    5  (  5.800466,  3.513742,  2.484573 )     2.09935929
  WF centre and spread    6  (  5.800464,  3.513743,  2.484572 )     2.09936340
  WF centre and spread    7  (  5.800458,  3.097083,  2.485536 )     2.06153081
  WF centre and spread    8  (  5.800459,  3.097076,  2.485533 )     2.06152969
  WF centre and spread    9  (  3.866977,  2.149664,  1.467211 )     1.48411245
  WF centre and spread   10  (  3.866974,  2.149666,  1.467213 )     1.48411245
  WF centre and spread   11  (  3.866971,  2.231635,  1.928209 )     2.01652739
  WF centre and spread   12  (  3.866971,  2.231635,  1.928200 )     2.01653881
  WF centre and spread   13  (  3.866966,  2.067754,  1.462143 )     2.09935748
  WF centre and spread   14  (  3.866977,  2.067752,  1.462137 )     2.09935941
  WF centre and spread   15  (  3.866976,  2.484423,  1.461180 )     2.06152814
  WF centre and spread   16  (  3.866981,  2.484416,  1.461178 )     2.06153005
  Sum of centres and spreads ( 77.339485, 44.651972, 31.573715 )    30.64614375
 
      9    -0.981E-01     0.1467831235       30.6461437518      35.14  <-- CONV
        O_D=      0.1597331 O_OD=     10.1969698 O_TOT=     30.6461438 <-- SPRD
 Delta: O_D=  0.2995335E-02 O_OD= -0.1010544E+00 O_TOT= -0.9805905E-01 <-- DLTA
 ------------------------------------------------------------------------------
 Cycle:     10
  WF centre and spread    1  (  5.800458,  3.582029,  2.660679 )     1.56913056
  WF centre and spread    2  (  5.800460,  3.582035,  2.660682 )     1.56913184
  WF centre and spread    3  (  5.800460,  3.348267,  1.833422 )     1.85915535
  WF centre and spread    4  (  5.800465,  3.348263,  1.833411 )     1.85914102
  WF centre and spread    5  (  5.800469,  3.511023,  2.482702 )     2.13911339
  WF centre and spread    6  (  5.800465,  3.511024,  2.482700 )     2.13911663
  WF centre and spread    7  (  5.800458,  2.949885,  2.490948 )     1.98622648
  WF centre and spread    8  (  5.800459,  2.949873,  2.490945 )     1.98622077
  WF centre and spread    9  (  3.866983,  1.999460,  1.286030 )     1.56913170
  WF centre and spread   10  (  3.866972,  1.999465,  1.286034 )     1.56912918
  WF centre and spread   11  (  3.866971,  2.233231,  2.113308 )     1.85913539
  WF centre and spread   12  (  3.866971,  2.233230,  2.113296 )     1.85915369
  WF centre and spread   13  (  3.866960,  2.070474,  1.464015 )     2.13910899
  WF centre and spread   14  (  3.866979,  2.070471,  1.464009 )     2.13911244
  WF centre and spread   15  (  3.866976,  2.631626,  1.455768 )     1.98621706
  WF centre and spread   16  (  3.866980,  2.631616,  1.455766 )     1.98622525
  Sum of centres and spreads ( 77.339485, 44.651971, 31.573715 )    30.21444973
 
     10    -0.432E+00     0.2386689920       30.2144497302      35.23  <-- CONV
        O_D=      0.2080562 O_OD=      9.7169526 O_TOT=     30.2144497 <-- SPRD
 Delta: O_D=  0.4832318E-01 O_OD= -0.4800172E+00 O_TOT= -0.4316940E+00 <-- DLTA
 ------------------------------------------------------------------------------
 Cycle:     11
  WF centre and spread    1  (  5.800458,  3.585858,  2.664247 )     1.51021672
  WF centre and spread    2  (  5.800460,  3.585865,  2.664250 )     1.51021848
  WF centre and spread    3  (  5.800460,  3.348293,  1.829016 )     1.81687374
  WF centre and spread    4  (  5.800465,  3.348288,  1.829007 )     1.81685899
  WF centre and spread    5  (  5.800469,  3.511375,  2.482956 )     2.10196298
  WF centre and spread    6  (  5.800465,  3.511376,  2.482954 )     2.10196595
  WF centre and spread    7  (  5.800458,  2.945657,  2.491532 )     1.94560797
  WF centre and spread    8  (  5.800459,  2.945645,  2.491529 )     1.94560085
  WF centre and spread    9  (  3.866983,  1.995631,  1.282463 )     1.51021796
  WF centre and spread   10  (  3.866972,  1.995636,  1.282467 )     1.51021614
  WF centre and spread   11  (  3.866971,  2.233205,  2.117713 )     1.81685308
  WF centre and spread   12  (  3.866971,  2.233204,  2.117701 )     1.81687219
  WF centre and spread   13  (  3.866960,  2.070122,  1.463760 )     2.10195944
  WF centre and spread   14  (  3.866979,  2.070119,  1.463755 )     2.10196218
  WF centre and spread   15  (  3.866976,  2.635855,  1.455184 )     1.94559771
  WF centre and spread   16  (  3.866980,  2.635845,  1.455182 )     1.94560592
  Sum of centres and spreads ( 77.339485, 44.651971, 31.573715 )    29.49859030
 
     11    -0.716E+00     0.7644981213       29.4985903065      35.32  <-- CONV
        O_D=      0.1463625 O_OD=      9.0627869 O_TOT=     29.4985903 <-- SPRD
 Delta: O_D= -0.6169373E-01 O_OD= -0.6541657E+00 O_TOT= -0.7158594E+00 <-- DLTA
 ------------------------------------------------------------------------------
 Cycle:     12
  WF centre and spread    1  (  5.800457,  3.594406,  2.672111 )     1.47117425
  WF centre and spread    2  (  5.800460,  3.594412,  2.672114 )     1.47117573
  WF centre and spread    3  (  5.800460,  3.348338,  1.819629 )     1.79366265
  WF centre and spread    4  (  5.800465,  3.348333,  1.819620 )     1.79364808
  WF centre and spread    5  (  5.800469,  3.511871,  2.483306 )     2.08972998
  WF centre and spread    6  (  5.800465,  3.511873,  2.483304 )     2.08973254
  WF centre and spread    7  (  5.800458,  2.936488,  2.492667 )     1.92566379
  WF centre and spread    8  (  5.800459,  2.936476,  2.492664 )     1.92565610
  WF centre and spread    9  (  3.866984,  1.987083,  1.274599 )     1.47117519
  WF centre and spread   10  (  3.866972,  1.987088,  1.274603 )     1.47117366
  WF centre and spread   11  (  3.866971,  2.233160,  2.127100 )     1.79364222
  WF centre and spread   12  (  3.866971,  2.233160,  2.127088 )     1.79366097
  WF centre and spread   13  (  3.866959,  2.069625,  1.463411 )     2.08972693
  WF centre and spread   14  (  3.866979,  2.069622,  1.463405 )     2.08972960
  WF centre and spread   15  (  3.866976,  2.645023,  1.454049 )     1.92565286
  WF centre and spread   16  (  3.866980,  2.645013,  1.454047 )     1.92566114
  Sum of centres and spreads ( 77.339485, 44.651972, 31.573715 )    29.12086569
 
     12    -0.378E+00     0.4227984692       29.1208656869      35.41  <-- CONV
        O_D=      0.1351887 O_OD=      8.6962361 O_TOT=     29.1208657 <-- SPRD
 Delta: O_D= -0.1117382E-01 O_OD= -0.3665508E+00 O_TOT= -0.3777246E+00 <-- DLTA
 ------------------------------------------------------------------------------
 Cycle:     13
  WF centre and spread    1  (  5.800457,  3.606371,  2.682885 )     1.44931516
  WF centre and spread    2  (  5.800459,  3.606377,  2.682888 )     1.44931651
  WF centre and spread    3  (  5.800460,  3.348442,  1.806916 )     1.77720920
  WF centre and spread    4  (  5.800465,  3.348438,  1.806906 )     1.77719609
  WF centre and spread    5  (  5.800470,  3.512357,  2.483642 )     2.08911406
  WF centre and spread    6  (  5.800465,  3.512358,  2.483640 )     2.08911500
  WF centre and spread    7  (  5.800458,  2.923805,  2.494200 )     1.91364307
  WF centre and spread    8  (  5.800459,  2.923793,  2.494197 )     1.91363594
  WF centre and spread    9  (  3.866984,  1.975118,  1.263825 )     1.44931601
  WF centre and spread   10  (  3.866972,  1.975124,  1.263829 )     1.44931423
  WF centre and spread   11  (  3.866971,  2.233056,  2.139813 )     1.77718991
  WF centre and spread   12  (  3.866971,  2.233055,  2.139802 )     1.77720846
  WF centre and spread   13  (  3.866959,  2.069139,  1.463074 )     2.08910931
  WF centre and spread   14  (  3.866979,  2.069136,  1.463069 )     2.08911271
  WF centre and spread   15  (  3.866976,  2.657707,  1.452516 )     1.91363174
  WF centre and spread   16  (  3.866980,  2.657697,  1.452514 )     1.91364068
  Sum of centres and spreads ( 77.339485, 44.651972, 31.573715 )    28.91706807
 
     13    -0.204E+00     0.2905289182       28.9170680757      35.51  <-- CONV
        O_D=      0.1310447 O_OD=      8.4965825 O_TOT=     28.9170681 <-- SPRD
 Delta: O_D= -0.4143987E-02 O_OD= -0.1996536E+00 O_TOT= -0.2037976E+00 <-- DLTA
 ------------------------------------------------------------------------------
 Cycle:     14
  WF centre and spread    1  (  5.800457,  3.624554,  2.698813 )     1.42851956
  WF centre and spread    2  (  5.800459,  3.624561,  2.698815 )     1.42852109
  WF centre and spread    3  (  5.800460,  3.348738,  1.788020 )     1.75869450
  WF centre and spread    4  (  5.800465,  3.348733,  1.788011 )     1.75868353
  WF centre and spread    5  (  5.800470,  3.512997,  2.484083 )     2.09531069
  WF centre and spread    6  (  5.800466,  3.512998,  2.484081 )     2.09530912
  WF centre and spread    7  (  5.800458,  2.904527,  2.496677 )     1.90139318
  WF centre and spread    8  (  5.800459,  2.904515,  2.496674 )     1.90138684
  WF centre and spread    9  (  3.866985,  1.956934,  1.247898 )     1.42852050
  WF centre and spread   10  (  3.866972,  1.956940,  1.247901 )     1.42851833
  WF centre and spread   11  (  3.866971,  2.232760,  2.158708 )     1.75867670
  WF centre and spread   12  (  3.866971,  2.232760,  2.158698 )     1.75869500
  WF centre and spread   13  (  3.866958,  2.068499,  1.462634 )     2.09530344
  WF centre and spread   14  (  3.866979,  2.068497,  1.462628 )     2.09530817
  WF centre and spread   15  (  3.866976,  2.676984,  1.450038 )     1.90138100
  WF centre and spread   16  (  3.866980,  2.676974,  1.450037 )     1.90139103
  Sum of centres and spreads ( 77.339485, 44.651972, 31.573715 )    28.73561267
 
     14    -0.181E+00     0.2676521275       28.7356126766      35.60  <-- CONV
        O_D=      0.1376118 O_OD=      8.3085599 O_TOT=     28.7356127 <-- SPRD
 Delta: O_D=  0.6567120E-02 O_OD= -0.1880225E+00 O_TOT= -0.1814554E+00 <-- DLTA
 ------------------------------------------------------------------------------
 Cycle:     15
  WF centre and spread    1  (  5.800454,  3.712729,  2.769440 )     1.38034323
  WF centre and spread    2  (  5.800458,  3.712735,  2.769439 )     1.38034607
  WF centre and spread    3  (  5.800460,  3.353808,  1.701969 )     1.66170854
  WF centre and spread    4  (  5.800465,  3.353804,  1.701962 )     1.66173971
  WF centre and spread    5  (  5.800472,  3.513580,  2.484328 )     2.13221707
  WF centre and spread    6  (  5.800467,  3.513581,  2.484326 )     2.13216550
  WF centre and spread    7  (  5.800458,  2.810579,  2.512775 )     1.82872547
  WF centre and spread    8  (  5.800459,  2.810567,  2.512772 )     1.82874359
  WF centre and spread    9  (  3.866991,  1.868759,  1.177275 )     1.38034617
  WF centre and spread   10  (  3.866971,  1.868764,  1.177275 )     1.38034034
  WF centre and spread   11  (  3.866972,  2.227689,  2.244756 )     1.66171917
  WF centre and spread   12  (  3.866971,  2.227689,  2.244748 )     1.66173629
  WF centre and spread   13  (  3.866952,  2.067916,  1.462389 )     2.13216136
  WF centre and spread   14  (  3.866981,  2.067914,  1.462383 )     2.13218863
  WF centre and spread   15  (  3.866976,  2.770933,  1.433940 )     1.82870932
  WF centre and spread   16  (  3.866980,  2.770923,  1.433939 )     1.82873062
  Sum of centres and spreads ( 77.339485, 44.651972, 31.573715 )    28.01192109
 
     15    -0.724E+00     0.3198596195       28.0119210882      35.69  <-- CONV
        O_D=      0.1729073 O_OD=      7.5495729 O_TOT=     28.0119211 <-- SPRD
 Delta: O_D=  0.3529547E-01 O_OD= -0.7589871E+00 O_TOT= -0.7236916E+00 <-- DLTA
 ------------------------------------------------------------------------------
 Cycle:     16
  WF centre and spread    1  (  5.800454,  3.716035,  2.771150 )     1.35212238
  WF centre and spread    2  (  5.800458,  3.716042,  2.771150 )     1.35212568
  WF centre and spread    3  (  5.800460,  3.354122,  1.699567 )     1.63184715
  WF centre and spread    4  (  5.800465,  3.354118,  1.699560 )     1.63188080
  WF centre and spread    5  (  5.800473,  3.513557,  2.484340 )     2.10902513
  WF centre and spread    6  (  5.800467,  3.513558,  2.484338 )     2.10896984
  WF centre and spread    7  (  5.800458,  2.807001,  2.513553 )     1.79903605
  WF centre and spread    8  (  5.800459,  2.806988,  2.513550 )     1.79905557
  WF centre and spread    9  (  3.866991,  1.865453,  1.175565 )     1.35212587
  WF centre and spread   10  (  3.866970,  1.865458,  1.175565 )     1.35212012
  WF centre and spread   11  (  3.866972,  2.227375,  2.247158 )     1.63185995
  WF centre and spread   12  (  3.866971,  2.227375,  2.247150 )     1.63187567
  WF centre and spread   13  (  3.866952,  2.067939,  1.462376 )     2.10896608
  WF centre and spread   14  (  3.866981,  2.067936,  1.462371 )     2.10899474
  WF centre and spread   15  (  3.866976,  2.774511,  1.433162 )     1.79901994
  WF centre and spread   16  (  3.866980,  2.774501,  1.433161 )     1.79904122
  Sum of centres and spreads ( 77.339485, 44.651972, 31.573715 )    27.56806617
 
     16    -0.444E+00     0.5756924326       27.5680661714      35.78  <-- CONV
        O_D=      0.1286648 O_OD=      7.1499604 O_TOT=     27.5680662 <-- SPRD
 Delta: O_D= -0.4424247E-01 O_OD= -0.3996124E+00 O_TOT= -0.4438549E+00 <-- DLTA
 ------------------------------------------------------------------------------
 Cycle:     17
  WF centre and spread    1  (  5.800454,  3.722384,  2.774339 )     1.34399121
  WF centre and spread    2  (  5.800458,  3.722390,  2.774338 )     1.34399419
  WF centre and spread    3  (  5.800460,  3.354749,  1.694783 )     1.61569677
  WF centre and spread    4  (  5.800465,  3.354744,  1.694776 )     1.61576647
  WF centre and spread    5  (  5.800473,  3.513637,  2.484431 )     2.10398462
  WF centre and spread    6  (  5.800467,  3.513639,  2.484429 )     2.10388387
  WF centre and spread    7  (  5.800458,  2.799919,  2.515154 )     1.78227220
  WF centre and spread    8  (  5.800459,  2.799906,  2.515152 )     1.78231614
  WF centre and spread    9  (  3.866992,  1.859105,  1.172376 )     1.34399536
  WF centre and spread   10  (  3.866970,  1.859110,  1.172376 )     1.34398836
  WF centre and spread   11  (  3.866972,  2.226749,  2.251942 )     1.61573419
  WF centre and spread   12  (  3.866971,  2.226748,  2.251934 )     1.61574758
  WF centre and spread   13  (  3.866951,  2.067859,  1.462285 )     2.10388214
  WF centre and spread   14  (  3.866981,  2.067856,  1.462280 )     2.10393054
  WF centre and spread   15  (  3.866976,  2.781593,  1.431561 )     1.78225641
  WF centre and spread   16  (  3.866980,  2.781584,  1.431560 )     1.78228405
  Sum of centres and spreads ( 77.339485, 44.651971, 31.573715 )    27.38372408
 
     17    -0.184E+00     0.2985388167       27.3837240847      35.87  <-- CONV
        O_D=      0.1252767 O_OD=      6.9690064 O_TOT=     27.3837241 <-- SPRD
 Delta: O_D= -0.3388088E-02 O_OD= -0.1809540E+00 O_TOT= -0.1843421E+00 <-- DLTA
 ------------------------------------------------------------------------------
 Cycle:     18
  WF centre and spread    1  (  5.800453,  3.735607,  2.780578 )     1.34642667
  WF centre and spread    2  (  5.800457,  3.735613,  2.780577 )     1.34642936
  WF centre and spread    3  (  5.800460,  3.356244,  1.684777 )     1.59168719
  WF centre and spread    4  (  5.800465,  3.356239,  1.684771 )     1.59182861
  WF centre and spread    5  (  5.800474,  3.513808,  2.484605 )     2.10136411
  WF centre and spread    6  (  5.800467,  3.513809,  2.484603 )     2.10117378
  WF centre and spread    7  (  5.800457,  2.784906,  2.518803 )     1.75546540
  WF centre and spread    8  (  5.800459,  2.784894,  2.518800 )     1.75555759
  WF centre and spread    9  (  3.866993,  1.845882,  1.166137 )     1.34643231
  WF centre and spread   10  (  3.866970,  1.845887,  1.166137 )     1.34642311
  WF centre and spread   11  (  3.866972,  2.225254,  2.261947 )     1.59177304
  WF centre and spread   12  (  3.866971,  2.225254,  2.261940 )     1.59178177
  WF centre and spread   13  (  3.866950,  2.067688,  1.462111 )     2.10117552
  WF centre and spread   14  (  3.866982,  2.067685,  1.462106 )     2.10126367
  WF centre and spread   15  (  3.866976,  2.796606,  1.427912 )     1.75545028
  WF centre and spread   16  (  3.866980,  2.796596,  1.427911 )     1.75549037
  Sum of centres and spreads ( 77.339485, 44.651972, 31.573715 )    27.17972277
 
     18    -0.204E+00     0.2683409219       27.1797227699      35.96  <-- CONV
        O_D=      0.1231258 O_OD=      6.7671561 O_TOT=     27.1797228 <-- SPRD
 Delta: O_D= -0.2150948E-02 O_OD= -0.2018504E+00 O_TOT= -0.2040013E+00 <-- DLTA
 ------------------------------------------------------------------------------
 Cycle:     19
  WF centre and spread    1  (  5.800453,  3.753888,  2.788264 )     1.36018365
  WF centre and spread    2  (  5.800457,  3.753894,  2.788262 )     1.36018416
  WF centre and spread    3  (  5.800460,  3.358840,  1.671167 )     1.56246373
  WF centre and spread    4  (  5.800465,  3.358836,  1.671162 )     1.56294474
  WF centre and spread    5  (  5.800475,  3.513831,  2.484681 )     2.10168379
  WF centre and spread    6  (  5.800468,  3.513832,  2.484679 )     2.10106791
  WF centre and spread    7  (  5.800457,  2.763846,  2.524643 )     1.72029460
  WF centre and spread    8  (  5.800459,  2.763834,  2.524640 )     1.72061866
  WF centre and spread    9  (  3.866995,  1.827601,  1.158453 )     1.36019501
  WF centre and spread   10  (  3.866969,  1.827605,  1.158451 )     1.36017630
  WF centre and spread   11  (  3.866972,  2.222658,  2.275556 )     1.56277822
  WF centre and spread   12  (  3.866971,  2.222657,  2.275550 )     1.56276687
  WF centre and spread   13  (  3.866947,  2.067665,  1.462036 )     2.10108563
  WF centre and spread   14  (  3.866982,  2.067662,  1.462030 )     2.10136347
  WF centre and spread   15  (  3.866975,  2.817665,  1.422072 )     1.72028459
  WF centre and spread   16  (  3.866980,  2.817656,  1.422071 )     1.72038355
  Sum of centres and spreads ( 77.339485, 44.651971, 31.573715 )    26.97847489
 
     19    -0.201E+00     0.2609996100       26.9784748896      36.06  <-- CONV
        O_D=      0.1205598 O_OD=      6.5684742 O_TOT=     26.9784749 <-- SPRD
 Delta: O_D= -0.2565992E-02 O_OD= -0.1986819E+00 O_TOT= -0.2012479E+00 <-- DLTA
 ------------------------------------------------------------------------------
 Cycle:     20
  WF centre and spread    1  (  5.800451,  3.782913,  2.797597 )     1.38795886
  WF centre and spread    2  (  5.800456,  3.782918,  2.797594 )     1.38795603
  WF centre and spread    3  (  5.800460,  3.364851,  1.650262 )     1.51408977
  WF centre and spread    4  (  5.800465,  3.364846,  1.650258 )     1.51506220
  WF centre and spread    5  (  5.800477,  3.513187,  2.484279 )     2.10696133
  WF centre and spread    6  (  5.800468,  3.513188,  2.484278 )     2.10573170
  WF centre and spread    7  (  5.800457,  2.729335,  2.536656 )     1.65969472
  WF centre and spread    8  (  5.800459,  2.729325,  2.536654 )     1.66035085
  WF centre and spread    9  (  3.866998,  1.798577,  1.149122 )     1.38797851
  WF centre and spread   10  (  3.866969,  1.798580,  1.149119 )     1.38794692
  WF centre and spread   11  (  3.866972,  2.216647,  2.296459 )     1.51473330
  WF centre and spread   12  (  3.866970,  2.216647,  2.296454 )     1.51468933
  WF centre and spread   13  (  3.866943,  2.068309,  1.462437 )     2.10577258
  WF centre and spread   14  (  3.866984,  2.068306,  1.462431 )     2.10632724
  WF centre and spread   15  (  3.866976,  2.852174,  1.410058 )     1.65969125
  WF centre and spread   16  (  3.866980,  2.852166,  1.410057 )     1.65987312
  Sum of centres and spreads ( 77.339485, 44.651971, 31.573715 )    26.67481770
 
     20    -0.304E+00     0.3124972256       26.6748177016      36.15  <-- CONV
        O_D=      0.1276731 O_OD=      6.2577037 O_TOT=     26.6748177 <-- SPRD
 Delta: O_D=  0.7113337E-02 O_OD= -0.3107705E+00 O_TOT= -0.3036572E+00 <-- DLTA
 ------------------------------------------------------------------------------
 Cycle:     21
  WF centre and spread    1  (  5.800448,  3.815319,  2.799008 )     1.44391041
  WF centre and spread    2  (  5.800455,  3.815322,  2.799003 )     1.44390302
  WF centre and spread    3  (  5.800459,  3.378460,  1.627113 )     1.44089783
  WF centre and spread    4  (  5.800465,  3.378456,  1.627110 )     1.44269653
  WF centre and spread    5  (  5.800480,  3.510824,  2.482577 )     2.11052624
  WF centre and spread    6  (  5.800470,  3.510825,  2.482576 )     2.10827006
  WF centre and spread    7  (  5.800457,  2.685533,  2.560078 )     1.56142138
  WF centre and spread    8  (  5.800459,  2.685524,  2.560076 )     1.56263492
  WF centre and spread    9  (  3.867004,  1.766173,  1.147713 )     1.44394487
  WF centre and spread   10  (  3.866967,  1.766175,  1.147708 )     1.44389084
  WF centre and spread   11  (  3.866974,  2.203038,  2.319606 )     1.44209111
  WF centre and spread   12  (  3.866970,  2.203037,  2.319603 )     1.44198917
  WF centre and spread   13  (  3.866936,  2.070673,  1.464139 )     2.10834771
  WF centre and spread   14  (  3.866986,  2.070670,  1.464133 )     2.10937578
  WF centre and spread   15  (  3.866976,  2.895975,  1.386636 )     1.56143046
  WF centre and spread   16  (  3.866980,  2.895968,  1.386635 )     1.56174772
  Sum of centres and spreads ( 77.339485, 44.651971, 31.573715 )    26.22707803
 
     21    -0.448E+00     0.3782964918       26.2270780276      36.24  <-- CONV
        O_D=      0.1156475 O_OD=      5.8219896 O_TOT=     26.2270780 <-- SPRD
 Delta: O_D= -0.1202564E-01 O_OD= -0.4357140E+00 O_TOT= -0.4477397E+00 <-- DLTA
 ------------------------------------------------------------------------------
 Cycle:     22
  WF centre and spread    1  (  5.800448,  3.816416,  2.798719 )     1.43248381
  WF centre and spread    2  (  5.800455,  3.816419,  2.798714 )     1.43247667
  WF centre and spread    3  (  5.800459,  3.378758,  1.626441 )     1.43279904
  WF centre and spread    4  (  5.800465,  3.378754,  1.626438 )     1.43445571
  WF centre and spread    5  (  5.800480,  3.511175,  2.482829 )     2.10326001
  WF centre and spread    6  (  5.800470,  3.511176,  2.482827 )     2.10118038
  WF centre and spread    7  (  5.800457,  2.684013,  2.561072 )     1.55192662
  WF centre and spread    8  (  5.800459,  2.684004,  2.561070 )     1.55304399
  WF centre and spread    9  (  3.867004,  1.765077,  1.148002 )     1.43251567
  WF centre and spread   10  (  3.866967,  1.765078,  1.147997 )     1.43246581
  WF centre and spread   11  (  3.866974,  2.202739,  2.320278 )     1.43389702
  WF centre and spread   12  (  3.866970,  2.202739,  2.320275 )     1.43380253
  WF centre and spread   13  (  3.866936,  2.070322,  1.463887 )     2.10125115
  WF centre and spread   14  (  3.866986,  2.070319,  1.463882 )     2.10220150
  WF centre and spread   15  (  3.866976,  2.897495,  1.385643 )     1.55193386
  WF centre and spread   16  (  3.866980,  2.897489,  1.385641 )     1.55222631
  Sum of centres and spreads ( 77.339485, 44.651971, 31.573715 )    26.08192008
 
     22    -0.145E+00     0.3351370073       26.0819200818      36.33  <-- CONV
        O_D=      0.1032322 O_OD=      5.6892470 O_TOT=     26.0819201 <-- SPRD
 Delta: O_D= -0.1241529E-01 O_OD= -0.1327427E+00 O_TOT= -0.1451579E+00 <-- DLTA
 ------------------------------------------------------------------------------
 Cycle:     23
  WF centre and spread    1  (  5.800448,  3.819308,  2.797732 )     1.42055435
  WF centre and spread    2  (  5.800454,  3.819311,  2.797727 )     1.42054519
  WF centre and spread    3  (  5.800459,  3.379577,  1.624897 )     1.42723987
  WF centre and spread    4  (  5.800465,  3.379573,  1.624894 )     1.42891121
  WF centre and spread    5  (  5.800480,  3.511993,  2.483395 )     2.09855209
  WF centre and spread    6  (  5.800470,  3.511994,  2.483393 )     2.09645441
  WF centre and spread    7  (  5.800457,  2.680077,  2.563772 )     1.54172604
  WF centre and spread    8  (  5.800459,  2.680068,  2.563770 )     1.54285414
  WF centre and spread    9  (  3.867006,  1.762185,  1.148989 )     1.42058521
  WF centre and spread   10  (  3.866966,  1.762186,  1.148984 )     1.42053625
  WF centre and spread   11  (  3.866974,  2.201921,  2.321822 )     1.42834573
  WF centre and spread   12  (  3.866970,  2.201920,  2.321819 )     1.42824710
  WF centre and spread   13  (  3.866934,  2.069503,  1.463321 )     2.09652444
  WF centre and spread   14  (  3.866986,  2.069501,  1.463316 )     2.09749091
  WF centre and spread   15  (  3.866976,  2.901430,  1.382942 )     1.54173372
  WF centre and spread   16  (  3.866980,  2.901424,  1.382941 )     1.54202696
  Sum of centres and spreads ( 77.339485, 44.651971, 31.573715 )    25.95232763
 
     23    -0.130E+00     0.2266388701       25.9523276307      36.42  <-- CONV
        O_D=      0.1063955 O_OD=      5.5564912 O_TOT=     25.9523276 <-- SPRD
 Delta: O_D=  0.3163323E-02 O_OD= -0.1327558E+00 O_TOT= -0.1295925E+00 <-- DLTA
 ------------------------------------------------------------------------------
 Cycle:     24
  WF centre and spread    1  (  5.800447,  3.822600,  2.796248 )     1.41448854
  WF centre and spread    2  (  5.800454,  3.822602,  2.796243 )     1.41449162
  WF centre and spread    3  (  5.800459,  3.380598,  1.623307 )     1.42387382
  WF centre and spread    4  (  5.800465,  3.380594,  1.623304 )     1.42439865
  WF centre and spread    5  (  5.800481,  3.512718,  2.483885 )     2.09404353
  WF centre and spread    6  (  5.800471,  3.512719,  2.483884 )     2.09338419
  WF centre and spread    7  (  5.800457,  2.675626,  2.567049 )     1.53212015
  WF centre and spread    8  (  5.800459,  2.675617,  2.567047 )     1.53246930
  WF centre and spread    9  (  3.867007,  1.758894,  1.150473 )     1.41450386
  WF centre and spread   10  (  3.866966,  1.758895,  1.150468 )     1.41448246
  WF centre and spread   11  (  3.866974,  2.200900,  2.323412 )     1.42421573
  WF centre and spread   12  (  3.866970,  2.200899,  2.323409 )     1.42418948
  WF centre and spread   13  (  3.866933,  2.068778,  1.462831 )     2.09340119
  WF centre and spread   14  (  3.866987,  2.068775,  1.462825 )     2.09371353
  WF centre and spread   15  (  3.866976,  2.905881,  1.379665 )     1.53211175
  WF centre and spread   16  (  3.866980,  2.905875,  1.379664 )     1.53221143
  Sum of centres and spreads ( 77.339485, 44.651971, 31.573715 )    25.85809922
 
     24    -0.942E-01     0.2178231654       25.8580992202      36.52  <-- CONV
        O_D=      0.0989722 O_OD=      5.4696861 O_TOT=     25.8580992 <-- SPRD
 Delta: O_D= -0.7423288E-02 O_OD= -0.8680512E-01 O_TOT= -0.9422841E-01 <-- DLTA
 ------------------------------------------------------------------------------
 Cycle:     25
  WF centre and spread    1  (  5.800447,  3.826926,  2.793753 )     1.41229897
  WF centre and spread    2  (  5.800454,  3.826928,  2.793748 )     1.41230975
  WF centre and spread    3  (  5.800459,  3.382072,  1.621271 )     1.41982256
  WF centre and spread    4  (  5.800465,  3.382068,  1.621268 )     1.42005913
  WF centre and spread    5  (  5.800482,  3.513353,  2.484313 )     2.09173552
  WF centre and spread    6  (  5.800471,  3.513354,  2.484312 )     2.09144298
  WF centre and spread    7  (  5.800457,  2.669742,  2.571740 )     1.51958744
  WF centre and spread    8  (  5.800458,  2.669734,  2.571738 )     1.51974302
  WF centre and spread    9  (  3.867009,  1.754568,  1.152968 )     1.41231171
  WF centre and spread   10  (  3.866965,  1.754569,  1.152963 )     1.41229753
  WF centre and spread   11  (  3.866974,  2.199426,  2.325448 )     1.41997269
  WF centre and spread   12  (  3.866969,  2.199425,  2.325445 )     1.41996329
  WF centre and spread   13  (  3.866930,  2.068143,  1.462403 )     2.09144633
  WF centre and spread   14  (  3.866988,  2.068140,  1.462398 )     2.09159422
  WF centre and spread   15  (  3.866976,  2.911764,  1.374975 )     1.51957524
  WF centre and spread   16  (  3.866980,  2.911759,  1.374973 )     1.51962662
  Sum of centres and spreads ( 77.339485, 44.651971, 31.573715 )    25.77378702
 
     25    -0.843E-01     0.1754575429       25.7737870179      36.61  <-- CONV
        O_D=      0.0973956 O_OD=      5.3869505 O_TOT=     25.7737870 <-- SPRD
 Delta: O_D= -0.1576612E-02 O_OD= -0.8273559E-01 O_TOT= -0.8431220E-01 <-- DLTA
 ------------------------------------------------------------------------------
 Cycle:     26
  WF centre and spread    1  (  5.800446,  3.830595,  2.790963 )     1.41374798
  WF centre and spread    2  (  5.800453,  3.830597,  2.790958 )     1.41376424
  WF centre and spread    3  (  5.800459,  3.383432,  1.619740 )     1.41625471
  WF centre and spread    4  (  5.800465,  3.383427,  1.619738 )     1.41633533
  WF centre and spread    5  (  5.800483,  3.513624,  2.484471 )     2.09106332
  WF centre and spread    6  (  5.800472,  3.513625,  2.484470 )     2.09096924
  WF centre and spread    7  (  5.800457,  2.664727,  2.576142 )     1.50805686
  WF centre and spread    8  (  5.800458,  2.664720,  2.576140 )     1.50810750
  WF centre and spread    9  (  3.867011,  1.750899,  1.155758 )     1.41375965
  WF centre and spread   10  (  3.866965,  1.750900,  1.155753 )     1.41374920
  WF centre and spread   11  (  3.866974,  2.198067,  2.326978 )     1.41630250
  WF centre and spread   12  (  3.866969,  2.198066,  2.326976 )     1.41630324
  WF centre and spread   13  (  3.866927,  2.067872,  1.462245 )     2.09096614
  WF centre and spread   14  (  3.866989,  2.067870,  1.462239 )     2.09102095
  WF centre and spread   15  (  3.866976,  2.916778,  1.370573 )     1.50804297
  WF centre and spread   16  (  3.866980,  2.916774,  1.370571 )     1.50806866
  Sum of centres and spreads ( 77.339485, 44.651971, 31.573715 )    25.71651249
 
     26    -0.573E-01     0.1630247868       25.7165124872      36.70  <-- CONV
[...]
  WF centre and spread    3  (  5.800409,  3.376502,  1.609591 )     1.38416527
  WF centre and spread    4  (  5.800443,  3.376497,  1.609589 )     1.38416065
  WF centre and spread    5  (  5.801225,  3.513562,  2.484460 )     2.09090192
  WF centre and spread    6  (  5.800831,  3.513563,  2.484458 )     2.09090642
  WF centre and spread    7  (  5.800406,  2.641497,  2.643468 )     1.38448467
  WF centre and spread    8  (  5.800434,  2.641492,  2.643462 )     1.38448033
  WF centre and spread    9  (  3.868416,  1.719015,  1.213183 )     1.49551921
  WF centre and spread   10  (  3.866585,  1.719013,  1.213180 )     1.49551359
  WF centre and spread   11  (  3.867082,  2.204997,  2.337126 )     1.38415872
  WF centre and spread   12  (  3.866938,  2.204995,  2.337124 )     1.38416524
  WF centre and spread   13  (  3.865288,  2.067934,  1.462256 )     2.09089719
  WF centre and spread   14  (  3.867433,  2.067932,  1.462251 )     2.09090319
  WF centre and spread   15  (  3.867083,  2.940006,  1.303252 )     1.38447998
  WF centre and spread   16  (  3.866952,  2.940003,  1.303247 )     1.38448411
  Sum of centres and spreads ( 77.339484, 44.651971, 31.573715 )    25.42025846
 
     91    -0.169E-04     0.0023527117       25.4202584588      26.17  <-- CONV
        O_D=      0.0859202 O_OD=      5.0448973 O_TOT=     25.4202585 <-- SPRD
 Delta: O_D= -0.1682327E-05 O_OD= -0.1522779E-04 O_TOT= -0.1691012E-04 <-- DLTA
 ------------------------------------------------------------------------------
 Cycle:     92
  WF centre and spread    1  (  5.799729,  3.862611,  2.733352 )     1.49553900
  WF centre and spread    2  (  5.800105,  3.862610,  2.733350 )     1.49554329
  WF centre and spread    3  (  5.800403,  3.376293,  1.609567 )     1.38416640
  WF centre and spread    4  (  5.800440,  3.376288,  1.609565 )     1.38416183
  WF centre and spread    5  (  5.801322,  3.513560,  2.484458 )     2.09091574
  WF centre and spread    6  (  5.800878,  3.513561,  2.484457 )     2.09092037
  WF centre and spread    7  (  5.800400,  2.641579,  2.643672 )     1.38444241
  WF centre and spread    8  (  5.800431,  2.641574,  2.643665 )     1.38443812
  WF centre and spread    9  (  3.868601,  1.718887,  1.213365 )     1.49554119
  WF centre and spread   10  (  3.866535,  1.718885,  1.213363 )     1.49553576
  WF centre and spread   11  (  3.867096,  2.205206,  2.337151 )     1.38415994
  WF centre and spread   12  (  3.866934,  2.205204,  2.337149 )     1.38416637
  WF centre and spread   13  (  3.865073,  2.067936,  1.462258 )     2.09091021
  WF centre and spread   14  (  3.867491,  2.067934,  1.462253 )     2.09091715
  WF centre and spread   15  (  3.867097,  2.939923,  1.303048 )     1.38443779
  WF centre and spread   16  (  3.866949,  2.939920,  1.303043 )     1.38444185
  Sum of centres and spreads ( 77.339484, 44.651971, 31.573715 )    25.42023741
 
     92    -0.210E-04     0.0027819893       25.4202374142      26.22  <-- CONV
        O_D=      0.0859174 O_OD=      5.0448791 O_TOT=     25.4202374 <-- SPRD
 Delta: O_D= -0.2799073E-05 O_OD= -0.1824556E-04 O_TOT= -0.2104463E-04 <-- DLTA
 ------------------------------------------------------------------------------
 Cycle:     93
  WF centre and spread    1  (  5.799647,  3.862726,  2.733184 )     1.49555885
  WF centre and spread    2  (  5.800065,  3.862726,  2.733182 )     1.49556317
  WF centre and spread    3  (  5.800397,  3.376102,  1.609546 )     1.38417218
  WF centre and spread    4  (  5.800437,  3.376098,  1.609544 )     1.38416764
  WF centre and spread    5  (  5.801418,  3.513559,  2.484458 )     2.09091947
  WF centre and spread    6  (  5.800924,  3.513560,  2.484456 )     2.09092425
  WF centre and spread    7  (  5.800394,  2.641657,  2.643858 )     1.38440894
  WF centre and spread    8  (  5.800428,  2.641652,  2.643852 )     1.38440468
  WF centre and spread    9  (  3.868782,  1.718772,  1.213534 )     1.49556087
  WF centre and spread   10  (  3.866486,  1.718770,  1.213531 )     1.49555564
  WF centre and spread   11  (  3.867110,  2.205396,  2.337172 )     1.38416580
  WF centre and spread   12  (  3.866931,  2.205395,  2.337170 )     1.38417215
  WF centre and spread   13  (  3.864862,  2.067936,  1.462258 )     2.09091306
  WF centre and spread   14  (  3.867548,  2.067934,  1.462253 )     2.09092102
  WF centre and spread   15  (  3.867111,  2.939846,  1.302862 )     1.38440439
  WF centre and spread   16  (  3.866945,  2.939843,  1.302857 )     1.38440838
  Sum of centres and spreads ( 77.339484, 44.651971, 31.573715 )    25.42022050
 
     93    -0.169E-04     0.0026620018       25.4202205026      26.28  <-- CONV
        O_D=      0.0859166 O_OD=      5.0448630 O_TOT=     25.4202205 <-- SPRD
 Delta: O_D= -0.8370271E-06 O_OD= -0.1607454E-04 O_TOT= -0.1691156E-04 <-- DLTA
 ------------------------------------------------------------------------------
 Cycle:     94
  WF centre and spread    1  (  5.799638,  3.862732,  2.733174 )     1.49555908
  WF centre and spread    2  (  5.800061,  3.862731,  2.733172 )     1.49556341
  WF centre and spread    3  (  5.800396,  3.376092,  1.609545 )     1.38417350
  WF centre and spread    4  (  5.800437,  3.376087,  1.609543 )     1.38416885
  WF centre and spread    5  (  5.801428,  3.513560,  2.484459 )     2.09091477
  WF centre and spread    6  (  5.800929,  3.513561,  2.484457 )     2.09091962
  WF centre and spread    7  (  5.800393,  2.641662,  2.643869 )     1.38440859
  WF centre and spread    8  (  5.800427,  2.641657,  2.643863 )     1.38440422
  WF centre and spread    9  (  3.868801,  1.718766,  1.213543 )     1.49556109
  WF centre and spread   10  (  3.866480,  1.718764,  1.213541 )     1.49555587
  WF centre and spread   11  (  3.867111,  2.205406,  2.337172 )     1.38416707
  WF centre and spread   12  (  3.866930,  2.205405,  2.337170 )     1.38417346
  WF centre and spread   13  (  3.864840,  2.067936,  1.462257 )     2.09090831
  WF centre and spread   14  (  3.867554,  2.067934,  1.462252 )     2.09091632
  WF centre and spread   15  (  3.867113,  2.939840,  1.302851 )     1.38440404
  WF centre and spread   16  (  3.866945,  2.939838,  1.302846 )     1.38440802
  Sum of centres and spreads ( 77.339484, 44.651971, 31.573715 )    25.42020622
 
     94    -0.143E-04     0.0034419199       25.4202062205      26.34  <-- CONV
        O_D=      0.0859159 O_OD=      5.0448494 O_TOT=     25.4202062 <-- SPRD
 Delta: O_D= -0.6837270E-06 O_OD= -0.1359843E-04 O_TOT= -0.1428215E-04 <-- DLTA
 ------------------------------------------------------------------------------
 Cycle:     95
  WF centre and spread    1  (  5.799611,  3.862750,  2.733144 )     1.49556099
  WF centre and spread    2  (  5.800047,  3.862749,  2.733142 )     1.49556533
  WF centre and spread    3  (  5.800394,  3.376060,  1.609543 )     1.38418002
  WF centre and spread    4  (  5.800436,  3.376055,  1.609541 )     1.38417527
  WF centre and spread    5  (  5.801460,  3.513561,  2.484460 )     2.09090226
  WF centre and spread    6  (  5.800944,  3.513562,  2.484458 )     2.09090722
  WF centre and spread    7  (  5.800391,  2.641678,  2.643902 )     1.38440930
  WF centre and spread    8  (  5.800426,  2.641673,  2.643896 )     1.38440486
  WF centre and spread    9  (  3.868862,  1.718748,  1.213574 )     1.49556294
  WF centre and spread   10  (  3.866464,  1.718746,  1.213571 )     1.49555779
  WF centre and spread   11  (  3.867116,  2.205439,  2.337174 )     1.38417357
  WF centre and spread   12  (  3.866929,  2.205437,  2.337172 )     1.38417996
  WF centre and spread   13  (  3.864769,  2.067934,  1.462256 )     2.09089554
  WF centre and spread   14  (  3.867573,  2.067933,  1.462251 )     2.09090386
  WF centre and spread   15  (  3.867117,  2.939824,  1.302818 )     1.38440478
  WF centre and spread   16  (  3.866943,  2.939821,  1.302813 )     1.38440874
  Sum of centres and spreads ( 77.339484, 44.651971, 31.573715 )    25.42019241
 
     95    -0.138E-04     0.0023080061       25.4201924082      26.40  <-- CONV
        O_D=      0.0859166 O_OD=      5.0448349 O_TOT=     25.4201924 <-- SPRD
 Delta: O_D=  0.6980474E-06 O_OD= -0.1451026E-04 O_TOT= -0.1381222E-04 <-- DLTA
 ------------------------------------------------------------------------------
 Cycle:     96
  WF centre and spread    1  (  5.799578,  3.862771,  2.733108 )     1.49556278
  WF centre and spread    2  (  5.800031,  3.862771,  2.733106 )     1.49556714
  WF centre and spread    3  (  5.800392,  3.376021,  1.609541 )     1.38418852
  WF centre and spread    4  (  5.800435,  3.376016,  1.609539 )     1.38418366
  WF centre and spread    5  (  5.801498,  3.513562,  2.484461 )     2.09088888
  WF centre and spread    6  (  5.800963,  3.513563,  2.484459 )     2.09089396
  WF centre and spread    7  (  5.800389,  2.641697,  2.643941 )     1.38441019
  WF centre and spread    8  (  5.800425,  2.641692,  2.643934 )     1.38440564
  WF centre and spread    9  (  3.868935,  1.718727,  1.213610 )     1.49556465
  WF centre and spread   10  (  3.866444,  1.718725,  1.213607 )     1.49555959
  WF centre and spread   11  (  3.867121,  2.205477,  2.337177 )     1.38418205
  WF centre and spread   12  (  3.866927,  2.205476,  2.337175 )     1.38418846
  WF centre and spread   13  (  3.864684,  2.067933,  1.462255 )     2.09088181
  WF centre and spread   14  (  3.867597,  2.067931,  1.462250 )     2.09089053
  WF centre and spread   15  (  3.867123,  2.939805,  1.302780 )     1.38440569
  WF centre and spread   16  (  3.866942,  2.939803,  1.302774 )     1.38440962
  Sum of centres and spreads ( 77.339484, 44.651971, 31.573715 )    25.42018317
 
     96    -0.923E-05     0.0021474818       25.4201831749      26.45  <-- CONV
        O_D=      0.0859170 O_OD=      5.0448252 O_TOT=     25.4201832 <-- SPRD
 Delta: O_D=  0.4336137E-06 O_OD= -0.9666997E-05 O_TOT= -0.9233383E-05 <-- DLTA
 ------------------------------------------------------------------------------
 Cycle:     97
  WF centre and spread    1  (  5.799528,  3.862803,  2.733056 )     1.49556467
  WF centre and spread    2  (  5.800007,  3.862803,  2.733055 )     1.49556906
  WF centre and spread    3  (  5.800388,  3.375965,  1.609536 )     1.38419971
  WF centre and spread    4  (  5.800433,  3.375960,  1.609534 )     1.38419483
  WF centre and spread    5  (  5.801557,  3.513564,  2.484462 )     2.09087429
  WF centre and spread    6  (  5.800992,  3.513565,  2.484461 )     2.09087951
  WF centre and spread    7  (  5.800385,  2.641723,  2.643996 )     1.38440983
  WF centre and spread    8  (  5.800423,  2.641718,  2.643990 )     1.38440526
  WF centre and spread    9  (  3.869046,  1.718695,  1.213661 )     1.49556641
  WF centre and spread   10  (  3.866414,  1.718693,  1.213658 )     1.49556149
  WF centre and spread   11  (  3.867130,  2.205534,  2.337181 )     1.38419329
  WF centre and spread   12  (  3.866925,  2.205532,  2.337179 )     1.38419964
  WF centre and spread   13  (  3.864555,  2.067932,  1.462253 )     2.09086663
  WF centre and spread   14  (  3.867631,  2.067930,  1.462249 )     2.09087605
  WF centre and spread   15  (  3.867131,  2.939780,  1.302724 )     1.38440539
  WF centre and spread   16  (  3.866940,  2.939777,  1.302719 )     1.38440926
  Sum of centres and spreads ( 77.339484, 44.651971, 31.573715 )    25.42017531
 
     97    -0.786E-05     0.0017082012       25.4201753109      26.51  <-- CONV
        O_D=      0.0859186 O_OD=      5.0448158 O_TOT=     25.4201753 <-- SPRD
 Delta: O_D=  0.1574854E-05 O_OD= -0.9438771E-05 O_TOT= -0.7863916E-05 <-- DLTA
 ------------------------------------------------------------------------------
 Cycle:     98
  WF centre and spread    1  (  5.799469,  3.862840,  2.732999 )     1.49556658
  WF centre and spread    2  (  5.799978,  3.862839,  2.732998 )     1.49557100
  WF centre and spread    3  (  5.800383,  3.375901,  1.609531 )     1.38420938
  WF centre and spread    4  (  5.800431,  3.375896,  1.609528 )     1.38420448
  WF centre and spread    5  (  5.801625,  3.513565,  2.484463 )     2.09086454
  WF centre and spread    6  (  5.801025,  3.513566,  2.484461 )     2.09086993
  WF centre and spread    7  (  5.800380,  2.641751,  2.644058 )     1.38440654
  WF centre and spread    8  (  5.800421,  2.641746,  2.644052 )     1.38440195
  WF centre and spread    9  (  3.869176,  1.718658,  1.213718 )     1.49556817
  WF centre and spread   10  (  3.866379,  1.718656,  1.213715 )     1.49556343
  WF centre and spread   11  (  3.867140,  2.205598,  2.337187 )     1.38420302
  WF centre and spread   12  (  3.866923,  2.205596,  2.337185 )     1.38420931
  WF centre and spread   13  (  3.864403,  2.067930,  1.462252 )     2.09085612
  WF centre and spread   14  (  3.867673,  2.067929,  1.462248 )     2.09086643
  WF centre and spread   15  (  3.867141,  2.939752,  1.302662 )     1.38440216
  WF centre and spread   16  (  3.866937,  2.939749,  1.302657 )     1.38440597
  Sum of centres and spreads ( 77.339483, 44.651971, 31.573715 )    25.42016901
 
     98    -0.630E-05     0.0016589630       25.4201690102      26.57  <-- CONV
        O_D=      0.0859199 O_OD=      5.0448082 O_TOT=     25.4201690 <-- SPRD
 Delta: O_D=  0.1264419E-05 O_OD= -0.7565155E-05 O_TOT= -0.6300736E-05 <-- DLTA
 ------------------------------------------------------------------------------
 Cycle:     99
  WF centre and spread    1  (  5.799394,  3.862885,  2.732932 )     1.49556988
  WF centre and spread    2  (  5.799942,  3.862884,  2.732930 )     1.49557435
  WF centre and spread    3  (  5.800378,  3.375824,  1.609523 )     1.38421669
  WF centre and spread    4  (  5.800428,  3.375819,  1.609521 )     1.38421177
  WF centre and spread    5  (  5.801713,  3.513565,  2.484464 )     2.09086017
  WF centre and spread    6  (  5.801067,  3.513566,  2.484462 )     2.09086577
  WF centre and spread    7  (  5.800375,  2.641783,  2.644131 )     1.38439903
  WF centre and spread    8  (  5.800418,  2.641778,  2.644125 )     1.38439443
  WF centre and spread    9  (  3.869342,  1.718614,  1.213786 )     1.49557126
  WF centre and spread   10  (  3.866334,  1.718611,  1.213783 )     1.49556677
  WF centre and spread   11  (  3.867152,  2.205675,  2.337194 )     1.38421041
  WF centre and spread   12  (  3.866919,  2.205674,  2.337192 )     1.38421661
  WF centre and spread   13  (  3.864210,  2.067930,  1.462252 )     2.09085071
  WF centre and spread   14  (  3.867725,  2.067929,  1.462247 )     2.09086224
  WF centre and spread   15  (  3.867154,  2.939719,  1.302589 )     1.38439474
  WF centre and spread   16  (  3.866933,  2.939716,  1.302584 )     1.38439846
  Sum of centres and spreads ( 77.339483, 44.651971, 31.573715 )    25.42016330
 
     99    -0.571E-05     0.0014848105       25.4201632991      26.63  <-- CONV
        O_D=      0.0859206 O_OD=      5.0448018 O_TOT=     25.4201633 <-- SPRD
 Delta: O_D=  0.7750145E-06 O_OD= -0.6486129E-05 O_TOT= -0.5711114E-05 <-- DLTA
 ------------------------------------------------------------------------------
 Cycle:    100
  WF centre and spread    1  (  5.799381,  3.862891,  2.732923 )     1.49557087
  WF centre and spread    2  (  5.799936,  3.862891,  2.732922 )     1.49557535
  WF centre and spread    3  (  5.800377,  3.375814,  1.609522 )     1.38421505
  WF centre and spread    4  (  5.800428,  3.375809,  1.609520 )     1.38421013
  WF centre and spread    5  (  5.801727,  3.513565,  2.484464 )     2.09086253
  WF centre and spread    6  (  5.801074,  3.513566,  2.484462 )     2.09086816
  WF centre and spread    7  (  5.800374,  2.641787,  2.644140 )     1.38439604
  WF centre and spread    8  (  5.800418,  2.641782,  2.644134 )     1.38439144
  WF centre and spread    9  (  3.869370,  1.718608,  1.213794 )     1.49557221
  WF centre and spread   10  (  3.866326,  1.718605,  1.213791 )     1.49556777
  WF centre and spread   11  (  3.867154,  2.205685,  2.337195 )     1.38420878
  WF centre and spread   12  (  3.866919,  2.205683,  2.337193 )     1.38421497
  WF centre and spread   13  (  3.864177,  2.067930,  1.462252 )     2.09085288
  WF centre and spread   14  (  3.867734,  2.067929,  1.462247 )     2.09086462
  WF centre and spread   15  (  3.867156,  2.939715,  1.302580 )     1.38439176
  WF centre and spread   16  (  3.866933,  2.939713,  1.302575 )     1.38439546
  Sum of centres and spreads ( 77.339483, 44.651971, 31.573715 )    25.42015803
 
    100    -0.527E-05     0.0019717755       25.4201580328      26.69  <-- CONV
        O_D=      0.0859196 O_OD=      5.0447975 O_TOT=     25.4201580 <-- SPRD
 Delta: O_D= -0.9944682E-06 O_OD= -0.4271824E-05 O_TOT= -0.5266293E-05 <-- DLTA
 ------------------------------------------------------------------------------

 Writing checkpoint file aiida.chk... done

 Final State
  WF centre and spread    1  (  5.799381,  3.862891,  2.732923 )     1.49557087
  WF centre and spread    2  (  5.799936,  3.862891,  2.732922 )     1.49557535
  WF centre and spread    3  (  5.800377,  3.375814,  1.609522 )     1.38421505
  WF centre and spread    4  (  5.800428,  3.375809,  1.609520 )     1.38421013
  WF centre and spread    5  (  5.801727,  3.513565,  2.484464 )     2.09086253
  WF centre and spread    6  (  5.801074,  3.513566,  2.484462 )     2.09086816
  WF centre and spread    7  (  5.800374,  2.641787,  2.644140 )     1.38439604
  WF centre and spread    8  (  5.800418,  2.641782,  2.644134 )     1.38439144
  WF centre and spread    9  (  3.869370,  1.718608,  1.213794 )     1.49557221
  WF centre and spread   10  (  3.866326,  1.718605,  1.213791 )     1.49556777
  WF centre and spread   11  (  3.867154,  2.205685,  2.337195 )     1.38420878
  WF centre and spread   12  (  3.866919,  2.205683,  2.337193 )     1.38421497
  WF centre and spread   13  (  3.864177,  2.067930,  1.462252 )     2.09085288
  WF centre and spread   14  (  3.867734,  2.067929,  1.462247 )     2.09086462
  WF centre and spread   15  (  3.867156,  2.939715,  1.302580 )     1.38439176
  WF centre and spread   16  (  3.866933,  2.939713,  1.302575 )     1.38439546
  Sum of centres and spreads ( 77.339483, 44.651971, 31.573715 )    25.42015803
 
         Spreads (Ang^2)       Omega I      =    20.289440913
        ================       Omega D      =     0.085919637
                               Omega OD     =     5.044797482
    Final Spread (Ang^2)       Omega Total  =    25.420158033
 ------------------------------------------------------------------------------
 Time for wannierise            5.760 (sec)

 Writing checkpoint file aiida.chk... done

 *---------------------------------------------------------------------------*
 |                               PLOTTING                                    |
 *---------------------------------------------------------------------------*
 
 Time for plotting             13.006 (sec)
 Total Execution Time          42.020 (sec)

 *===========================================================================*
 |                             TIMING INFORMATION                            |
 *===========================================================================*
 |    Tag                                                Ncalls      Time (s)|
 |---------------------------------------------------------------------------|
 |kmesh: get                                        :         1         0.136|
 |overlap: allocate                                 :         1         0.000|
 |overlap: read                                     :         1         2.168|
 |dis: main                                         :         1        20.895|
 |wann: main                                        :         1         5.760|
 |plot: main                                        :         1        13.006|
 *---------------------------------------------------------------------------*
 
 All done: wannier90 exiting
