File written on 20Apr2025 at 13:22:24 

calc_only_A  :  F

begin real_lattice
   3.8669746   0.0000000   0.0000000
   1.9334873   3.3488983   0.0000000
   1.9334873   1.1162994   3.1573716
end real_lattice

begin recip_lattice
   1.6248323  -0.9380974  -0.6633350
   0.0000000   1.8761947  -0.6633350
   0.0000000   0.0000000   1.9900050
end recip_lattice

begin kpoints
     8
    0.00000000    0.00000000    0.00000000
    0.00000000    0.00000000    0.50000000
    0.00000000    0.50000000    0.00000000
    0.00000000    0.50000000    0.50000000
    0.50000000    0.00000000    0.00000000
    0.50000000    0.00000000    0.50000000
    0.50000000    0.50000000    0.00000000
    0.50000000    0.50000000    0.50000000
end kpoints

begin spinor_projections
    16
   0.75000    0.75000    0.75000     0  1  1
    0.0000000  0.0000000  1.0000000   1.0000000  0.0000000  0.0000000    1.00
    1   0.0000000  0.0000000  1.0000000
   0.75000    0.75000    0.75000     0  1  1
    0.0000000  0.0000000  1.0000000   1.0000000  0.0000000  0.0000000    1.00
   -1   0.0000000  0.0000000  1.0000000
   0.75000    0.75000    0.75000     1  1  1
    0.0000000  0.0000000  1.0000000   1.0000000  0.0000000  0.0000000    1.00
    1   0.0000000  0.0000000  1.0000000
   0.75000    0.75000    0.75000     1  1  1
    0.0000000  0.0000000  1.0000000   1.0000000  0.0000000  0.0000000    1.00
   -1   0.0000000  0.0000000  1.0000000
   0.75000    0.75000    0.75000     1  2  1
    0.0000000  0.0000000  1.0000000   1.0000000  0.0000000  0.0000000    1.00
    1   0.0000000  0.0000000  1.0000000
   0.75000    0.75000    0.75000     1  2  1
    0.0000000  0.0000000  1.0000000   1.0000000  0.0000000  0.0000000    1.00
   -1   0.0000000  0.0000000  1.0000000
   0.75000    0.75000    0.75000     1  3  1
    0.0000000  0.0000000  1.0000000   1.0000000  0.0000000  0.0000000    1.00
    1   0.0000000  0.0000000  1.0000000
   0.75000    0.75000    0.75000     1  3  1
    0.0000000  0.0000000  1.0000000   1.0000000  0.0000000  0.0000000    1.00
   -1   0.0000000  0.0000000  1.0000000
   0.50000    0.50000    0.50000     0  1  1
    0.0000000  0.0000000  1.0000000   1.0000000  0.0000000  0.0000000    1.00
    1   0.0000000  0.0000000  1.0000000
   0.50000    0.50000    0.50000     0  1  1
    0.0000000  0.0000000  1.0000000   1.0000000  0.0000000  0.0000000    1.00
   -1   0.0000000  0.0000000  1.0000000
   0.50000    0.50000    0.50000     1  1  1
    0.0000000  0.0000000  1.0000000   1.0000000  0.0000000  0.0000000    1.00
    1   0.0000000  0.0000000  1.0000000
   0.50000    0.50000    0.50000     1  1  1
    0.0000000  0.0000000  1.0000000   1.0000000  0.0000000  0.0000000    1.00
   -1   0.0000000  0.0000000  1.0000000
   0.50000    0.50000    0.50000     1  2  1
    0.0000000  0.0000000  1.0000000   1.0000000  0.0000000  0.0000000    1.00
    1   0.0000000  0.0000000  1.0000000
   0.50000    0.50000    0.50000     1  2  1
    0.0000000  0.0000000  1.0000000   1.0000000  0.0000000  0.0000000    1.00
   -1   0.0000000  0.0000000  1.0000000
   0.50000    0.50000    0.50000     1  3  1
    0.0000000  0.0000000  1.0000000   1.0000000  0.0000000  0.0000000    1.00
    1   0.0000000  0.0000000  1.0000000
   0.50000    0.50000    0.50000     1  3  1
    0.0000000  0.0000000  1.0000000   1.0000000  0.0000000  0.0000000    1.00
   -1   0.0000000  0.0000000  1.0000000
end spinor_projections

begin nnkpts
   8
     1     2      0   0   0
     1     3      0   0   0
     1     5      0   0   0
     1     8      0   0   0
     1     2      0   0  -1
     1     3      0  -1   0
     1     5     -1   0   0
     1     8     -1  -1  -1
     2     1      0   0   0
     2     4      0   0   0
     2     6      0   0   0
     2     1      0   0   1
     2     7      0   0   1
     2     4      0  -1   0
     2     6     -1   0   0
     2     7     -1  -1   0
     3     1      0   0   0
     3     4      0   0   0
     3     7      0   0   0
     3     1      0   1   0
     3     6      0   1   0
     3     4      0   0  -1
     3     7     -1   0   0
     3     6     -1   0  -1
     4     2      0   0   0
     4     3      0   0   0
     4     8      0   0   0
     4     2      0   1   0
     4     3      0   0   1
     4     5     -1   0   0
     4     8     -1   0   0
     4     5      0   1   1
     5     1      0   0   0
     5     6      0   0   0
     5     7      0   0   0
     5     1      1   0   0
     5     4      1   0   0
     5     6      0   0  -1
     5     7      0  -1   0
     5     4      0  -1  -1
     6     2      0   0   0
     6     5      0   0   0
     6     8      0   0   0
     6     2      1   0   0
     6     5      0   0   1
     6     3      0  -1   0
     6     8      0  -1   0
     6     3      1   0   1
     7     3      0   0   0
     7     5      0   0   0
     7     8      0   0   0
     7     3      1   0   0
     7     5      0   1   0
     7     2      0   0  -1
     7     8      0   0  -1
     7     2      1   1   0
     8     1      0   0   0
     8     4      0   0   0
     8     6      0   0   0
     8     7      0   0   0
     8     1      1   1   1
     8     4      1   0   0
     8     6      0   1   0
     8     7      0   0   1
end nnkpts

begin exclude_bands
   0
end exclude_bands
