
     Program PW2WANNIER v.7.3 starts on 20Apr2025 at 13:22:45 

     This program is part of the open-source Quantum ESPRESSO suite
     for quantum simulation of materials; please cite
         "P. Giannozzi et al., J. Phys.:Condens. Matter 21 395502 (2009);
         "P. Giannozzi et al., J. Phys.:Condens. Matter 29 465901 (2017);
         "P. Giannozzi et al., J. Chem. Phys. 152 154105 (2020);
          URL http://www.quantum-espresso.org", 
     in publications or presentations arising from this work. More details at
     http://www.quantum-espresso.org/quote

     Parallel version (MPI), running on    12 processors

     MPI processes distributed on     1 nodes
     R & G space division:  proc/nbgrp/npool/nimage =      12
     875285 MiB available memory on the printing compute node when the environment starts
 
 
     Reading nscf_save data

     Reading xml data from directory:

     ./out/aiida.save/
     file Si.rel-pbe-n-kjpaw_psl.0.1.UPF: wavefunction(s)  3S renormalized

     IMPORTANT: XC functional enforced from input :
     Exchange-correlation= PBE
                           (   1   4   3   4   0   0   0)
     Any further DFT definition will be discarded
     Please, verify this is what you really want

 
     Parallelization info
     --------------------
     sticks:   dense  smooth     PW     G-vecs:    dense   smooth      PW
     Min          30      25      7                  386      281      49
     Max          31      26      8                  388      283      54
     Sum         367     301     91                 4645     3383     609
 
     Using Slab Decomposition
 

     Check: negative core charge=   -0.000015
     Reading collected, re-writing distributed wavefunctions
 
  Spin CASE ( non-collinear )
 
  Wannier mode is: standalone     
 
  -----------------
  *** Reading nnkp 
  -----------------
 
  Checking info from wannier.nnkp file
 
  - Real lattice is ok
  - Reciprocal lattice is ok
  - K-points are ok
  - Number of wannier functions is ok ( 16)
  - All guiding functions are given 
 
 Projections:
    1.500000    0.866025    0.612372  0  1  1    1.000000
    1.500000    0.866025    0.612372  0  1  1    1.000000
    1.500000    0.866025    0.612372  1  1  1    1.000000
    1.500000    0.866025    0.612372  1  1  1    1.000000
    1.500000    0.866025    0.612372  1  2  1    1.000000
    1.500000    0.866025    0.612372  1  2  1    1.000000
    1.500000    0.866025    0.612372  1  3  1    1.000000
    1.500000    0.866025    0.612372  1  3  1    1.000000
    1.000000    0.577350    0.408248  0  1  1    1.000000
    1.000000    0.577350    0.408248  0  1  1    1.000000
    1.000000    0.577350    0.408248  1  1  1    1.000000
    1.000000    0.577350    0.408248  1  1  1    1.000000
    1.000000    0.577350    0.408248  1  2  1    1.000000
    1.000000    0.577350    0.408248  1  2  1    1.000000
    1.000000    0.577350    0.408248  1  3  1    1.000000
    1.000000    0.577350    0.408248  1  3  1    1.000000
 
  Reading data about k-point neighbours 
 
  All neighbours are found 
 
  Opening pp-files 
 
 
  --------------------------
  *** Compute  A projections
  --------------------------
 
 Number of local k points =        8
       1       2       3       4       5       6       7       8
  AMN calculated
 
  ---------------
  *** Compute  M 
  ---------------
 
 Number of local k points =        8
       1       2       3       4       5       6       7       8
  MMN calculated
 
  --------------------------------
  *** Spin matrix is not computed 
  --------------------------------
 
  -----------------------------------
  *** Orbital terms are not computed 
  -----------------------------------
 
  -----------------------------------
  *** SHC terms are not computed 
  -----------------------------------
 
  ----------------
  *** Write bands 
  ----------------
 
 
  -----------------------------
  *** Plot info is not printed 
  -----------------------------
 
  -----------------------------
  *** Parity info is not printed 
  -----------------------------
 
  ------------
  *** Stop pp 
  ------------
 
 
     init_pw2wan  :      0.11s CPU      0.18s WALL (       1 calls)
     compute_amn  :      0.05s CPU      0.06s WALL (       1 calls)
     compute_mmn  :      0.21s CPU      0.27s WALL (       1 calls)

     Internal routines:
     compute_u_kb :      0.11s CPU      0.12s WALL (      64 calls)
 
     PW2WANNIER   :      0.37s CPU      0.51s WALL

 
   This run was terminated on:  13:22:46  20Apr2025            

=------------------------------------------------------------------------------=
   JOB DONE.
=------------------------------------------------------------------------------=
 
