
     Program PW2WANNIER v.7.3 starts on  4May2025 at  0:58:49 

     This program is part of the open-source Quantum ESPRESSO suite
     for quantum simulation of materials; please cite
         "P. Giannozzi et al., J. Phys.:Condens. Matter 21 395502 (2009);
         "P. Giannozzi et al., J. Phys.:Condens. Matter 29 465901 (2017);
         "P. Giannozzi et al., J. Chem. Phys. 152 154105 (2020);
          URL http://www.quantum-espresso.org", 
     in publications or presentations arising from this work. More details at
     http://www.quantum-espresso.org/quote

     Parallel version (MPI), running on    12 processors

     MPI processes distributed on     1 nodes
     R & G space division:  proc/nbgrp/npool/nimage =      12
     124047 MiB available memory on the printing compute node when the environment starts
 
 
     Reading nscf_save data

     Reading xml data from directory:

     ./out/aiida.save/
     file Si.rel-pbe-n-kjpaw_psl.0.1.UPF: wavefunction(s)  3S renormalized

     IMPORTANT: XC functional enforced from input :
     Exchange-correlation= PBE
                           (   1   4   3   4   0   0   0)
     Any further DFT definition will be discarded
     Please, verify this is what you really want

 
     Parallelization info
     --------------------
     sticks:   dense  smooth     PW     G-vecs:    dense   smooth      PW
     Min          46      46     13                  720      720     119
     Max          47      47     14                  723      723     123
     Sum         559     559    163                 8657     8657    1459
 
     Using Slab Decomposition
 

     Check: negative core charge=   -0.000003
     Reading collected, re-writing distributed wavefunctions
 
  Spin CASE ( non-collinear )
 
  Wannier mode is: standalone     
 
  -----------------
  *** Reading nnkp 
  -----------------
 
  Checking info from wannier.nnkp file
 
  - Real lattice is ok
  - Reciprocal lattice is ok
  - K-points are ok
  - Number of wannier functions is ok ( 16)
  - All guiding functions are given 
 
 Projections:
    1.500000    0.866025    0.612372  0  1  1    1.000000
    1.500000    0.866025    0.612372  0  1  1    1.000000
    1.500000    0.866025    0.612372  1  1  1    1.000000
    1.500000    0.866025    0.612372  1  1  1    1.000000
    1.500000    0.866025    0.612372  1  2  1    1.000000
    1.500000    0.866025    0.612372  1  2  1    1.000000
    1.500000    0.866025    0.612372  1  3  1    1.000000
    1.500000    0.866025    0.612372  1  3  1    1.000000
    1.000000    0.577350    0.408248  0  1  1    1.000000
    1.000000    0.577350    0.408248  0  1  1    1.000000
    1.000000    0.577350    0.408248  1  1  1    1.000000
    1.000000    0.577350    0.408248  1  1  1    1.000000
    1.000000    0.577350    0.408248  1  2  1    1.000000
    1.000000    0.577350    0.408248  1  2  1    1.000000
    1.000000    0.577350    0.408248  1  3  1    1.000000
    1.000000    0.577350    0.408248  1  3  1    1.000000
 
  Reading data about k-point neighbours 
 
  All neighbours are found 
 
  Opening pp-files 
 
 
  --------------------------
  *** Compute  A projections
  --------------------------
 
 Number of local k points =       14
       1       2       3       4       5       6       7       8       9      10
      11      12      13      14
  AMN calculated
 
  ---------------
  *** Compute  M 
  ---------------
 
  MMN: iknum =       14
       1       2       3       4       5       6       7       8       9      10
      11      12      13      14

  IBZ MMN calculated
 
  --------------------------------
  *** Spin matrix is not computed 
  --------------------------------
 
  -----------------------------------
  *** Orbital terms are not computed 
  -----------------------------------
 
  -----------------------------------
  *** SHC terms are not computed 
  -----------------------------------
 
  ----------------
  *** Write bands 
  ----------------
 
 
  -----------------------------
  *** Plot info is not printed 
  -----------------------------
 
  -----------------------------
  *** Parity info is not printed 
  -----------------------------
 
  ------------
  *** Stop pp 
  ------------
 
 
     init_pw2wan  :      0.17s CPU      0.29s WALL (       1 calls)
     compute_amn  :      0.24s CPU      0.25s WALL (       1 calls)
     compute_immn :      1.37s CPU      1.54s WALL (       1 calls)

     Internal routines:
 
     PW2WANNIER   :      1.78s CPU      2.09s WALL

 
   This run was terminated on:   0:58:51   4May2025            

=------------------------------------------------------------------------------=
   JOB DONE.
=------------------------------------------------------------------------------=
 
