
     Program PWSCF v.7.3 starts on 19Apr2025 at 18:14:36 

     This program is part of the open-source Quantum ESPRESSO suite
     for quantum simulation of materials; please cite
         "P. Giannozzi et al., J. Phys.:Condens. Matter 21 395502 (2009);
         "P. Giannozzi et al., J. Phys.:Condens. Matter 29 465901 (2017);
         "P. Giannozzi et al., J. Chem. Phys. 152 154105 (2020);
          URL http://www.quantum-espresso.org", 
     in publications or presentations arising from this work. More details at
     http://www.quantum-espresso.org/quote

     Parallel version (MPI), running on    24 processors

     MPI processes distributed on     2 nodes
     447 MiB available memory on the printing compute node when the environment starts
 
     Reading input from aiida.in

     Current dimensions of program PWSCF are:
     Max number of different atomic species (ntypx) = 10
     Max number of k-points (npk) =  40000
     Max angular momentum in pseudopotentials (lmaxx) =  4
     file Si.rel-pbe-n-kjpaw_psl.0.1.UPF: wavefunction(s)  3S renormalized
     Message from routine setup:
     using ibrav=0 with symmetry is DISCOURAGED, use correct ibrav instead
 
     K-points division:     npool     =       2
     R & G space division:  proc/nbgrp/npool/nimage =      12
     Subspace diagonalization in iterative solution of the eigenvalue problem:
     a serial algorithm will be used

 
     Parallelization info
     --------------------
     sticks:   dense  smooth     PW     G-vecs:    dense   smooth      PW
     Min          30      25      8                  386      281      53
     Max          31      26      9                  388      283      56
     Sum         367     301     97                 4645     3383     645
 
     Using Slab Decomposition
 


     bravais-lattice index     =            0
     lattice parameter (alat)  =       7.3075  a.u.
     unit-cell volume          =     275.9279 (a.u.)^3
     number of atoms/cell      =            2
     number of atomic types    =            1
     number of electrons       =         8.00
     number of Kohn-Sham states=            8
     kinetic-energy cutoff     =      20.0000  Ry
     charge density cutoff     =     100.0000  Ry
     scf convergence threshold =      1.0E-06
     mixing beta               =       0.7000
     number of iterations used =            8  plain     mixing
     Exchange-correlation= SLA  PW   PBX  PBC
                           (   1   4   3   4   0   0   0)
     Non magnetic calculation with spin-orbit


     celldm(1)=   7.307523  celldm(2)=   0.000000  celldm(3)=   0.000000
     celldm(4)=   0.000000  celldm(5)=   0.000000  celldm(6)=   0.000000

     crystal axes: (cart. coord. in units of alat)
               a(1) = (   1.000000   0.000000   0.000000 )  
               a(2) = (   0.500000   0.866025   0.000000 )  
               a(3) = (   0.500000   0.288675   0.816497 )  

     reciprocal axes: (cart. coord. in units 2 pi/alat)
               b(1) = (  1.000000 -0.577350 -0.408248 )  
               b(2) = (  0.000000  1.154701 -0.408248 )  
               b(3) = (  0.000000  0.000000  1.224745 )  


     PseudoPot. # 1 for Si read from file:
     ./pseudo/Si.rel-pbe-n-kjpaw_psl.0.1.UPF
     MD5 check sum: 67eb1bc5c689d7b48afd963eedacb1f1
     Pseudo is Projector augmented-wave + core cor, Zval =  4.0
     Generated using "atomic" code by A. Dal Corso  v.5.0.2 svn rev. 9415
     Shape of augmentation charge: PSQ
     Using radial grid of 1141 points,  6 beta functions with: 
                l(1) =   0
                l(2) =   0
                l(3) =   1
                l(4) =   1
                l(5) =   1
                l(6) =   1
     Q(r) pseudized with 0 coefficients 


     atomic species   valence    mass     pseudopotential
     Si                4.00    28.08500     Si( 1.00)

     12 Sym. Ops., with inversion, found ( 6 have fractional translation)


                                    s                        frac. trans.

      isym =  1     identity                                     

 cryst.   s( 1) = (     1          0          0      )
                  (     0          1          0      )
                  (     0          0          1      )

 cart.    s( 1) = (  1.0000000  0.0000000  0.0000000 )
                  (  0.0000000  1.0000000  0.0000000 )
                  (  0.0000000  0.0000000  1.0000000 )


      isym =  2     180 deg rotation - cart. axis [1,0,0]        

 cryst.   s( 2) = (     1          0          0      )    f =( -0.2500000 )
                  (     1         -1          0      )       ( -0.2500000 )
                  (     1          0         -1      )       ( -0.2500000 )

 cart.    s( 2) = (  1.0000000  0.0000000  0.0000000 )    f =( -0.5000000 )
                  (  0.0000000 -1.0000000  0.0000000 )       ( -0.2886751 )
                  (  0.0000000  0.0000000 -1.0000000 )       ( -0.2041241 )


      isym =  3     120 deg rotation - cryst. axis [0,0,1]       

 cryst.   s( 3) = (    -1          1          0      )
                  (    -1          0          0      )
                  (    -1          0          1      )

 cart.    s( 3) = ( -0.5000000 -0.8660254  0.0000000 )
                  (  0.8660254 -0.5000000  0.0000000 )
                  (  0.0000000  0.0000000  1.0000000 )


      isym =  4     120 deg rotation - cryst. axis [0,0,-1]      

 cryst.   s( 4) = (     0         -1          0      )
                  (     1         -1          0      )
                  (     0         -1          1      )

 cart.    s( 4) = ( -0.5000000  0.8660254 -0.0000000 )
                  ( -0.8660254 -0.5000000  0.0000000 )
                  (  0.0000000  0.0000000  1.0000000 )


      isym =  5     180 deg rotation - cryst. axis [0,1,0]       

 cryst.   s( 5) = (     0         -1          0      )    f =( -0.2500000 )
                  (    -1          0          0      )       ( -0.2500000 )
                  (     0          0         -1      )       ( -0.2500000 )

 cart.    s( 5) = ( -0.5000000 -0.8660254  0.0000000 )    f =( -0.5000000 )
                  ( -0.8660254  0.5000000 -0.0000000 )       ( -0.2886751 )
                  (  0.0000000  0.0000000 -1.0000000 )       ( -0.2041241 )


      isym =  6     180 deg rotation - cryst. axis [1,1,0]       

 cryst.   s( 6) = (    -1          1          0      )    f =( -0.2500000 )
                  (     0          1          0      )       ( -0.2500000 )
                  (     0          1         -1      )       ( -0.2500000 )

 cart.    s( 6) = ( -0.5000000  0.8660254 -0.0000000 )    f =( -0.5000000 )
                  (  0.8660254  0.5000000 -0.0000000 )       ( -0.2886751 )
                  (  0.0000000  0.0000000 -1.0000000 )       ( -0.2041241 )


      isym =  7     inversion                                    

 cryst.   s( 7) = (    -1          0          0      )    f =( -0.2500000 )
                  (     0         -1          0      )       ( -0.2500000 )
                  (     0          0         -1      )       ( -0.2500000 )

 cart.    s( 7) = ( -1.0000000  0.0000000  0.0000000 )    f =( -0.5000000 )
                  (  0.0000000 -1.0000000  0.0000000 )       ( -0.2886751 )
                  (  0.0000000  0.0000000 -1.0000000 )       ( -0.2041241 )


      isym =  8     inv. 180 deg rotation - cart. axis [1,0,0]   

 cryst.   s( 8) = (    -1          0          0      )
                  (    -1          1          0      )
                  (    -1          0          1      )

 cart.    s( 8) = ( -1.0000000  0.0000000  0.0000000 )
                  (  0.0000000  1.0000000  0.0000000 )
                  (  0.0000000  0.0000000  1.0000000 )


      isym =  9     inv. 120 deg rotation - cryst. axis [0,0,1]  

 cryst.   s( 9) = (     1         -1          0      )    f =( -0.2500000 )
                  (     1          0          0      )       ( -0.2500000 )
                  (     1          0         -1      )       ( -0.2500000 )

 cart.    s( 9) = (  0.5000000  0.8660254 -0.0000000 )    f =( -0.5000000 )
                  ( -0.8660254  0.5000000 -0.0000000 )       ( -0.2886751 )
                  (  0.0000000  0.0000000 -1.0000000 )       ( -0.2041241 )


      isym = 10     inv. 120 deg rotation - cryst. axis [0,0,-1] 

 cryst.   s(10) = (     0          1          0      )    f =( -0.2500000 )
                  (    -1          1          0      )       ( -0.2500000 )
                  (     0          1         -1      )       ( -0.2500000 )

 cart.    s(10) = (  0.5000000 -0.8660254  0.0000000 )    f =( -0.5000000 )
                  (  0.8660254  0.5000000 -0.0000000 )       ( -0.2886751 )
                  (  0.0000000  0.0000000 -1.0000000 )       ( -0.2041241 )


      isym = 11     inv. 180 deg rotation - cryst. axis [0,1,0]  

 cryst.   s(11) = (     0          1          0      )
                  (     1          0          0      )
                  (     0          0          1      )

 cart.    s(11) = (  0.5000000  0.8660254 -0.0000000 )
                  (  0.8660254 -0.5000000  0.0000000 )
                  (  0.0000000  0.0000000  1.0000000 )


      isym = 12     inv. 180 deg rotation - cryst. axis [1,1,0]  

 cryst.   s(12) = (     1         -1          0      )
                  (     0         -1          0      )
                  (     0         -1          1      )

 cart.    s(12) = (  0.5000000 -0.8660254  0.0000000 )
                  ( -0.8660254 -0.5000000  0.0000000 )
                  (  0.0000000  0.0000000  1.0000000 )


   Cartesian axes

     site n.     atom                  positions (alat units)
         1        Si     tau(   1) = (   1.5000000   0.8660254   0.6123724  )
         2        Si     tau(   2) = (   1.0000000   0.5773503   0.4082483  )

   Crystallographic axes

     site n.     atom                  positions (cryst. coord.)
         1        Si     tau(   1) = (  0.7500000  0.7500000  0.7500000  )
         2        Si     tau(   2) = (  0.5000000  0.5000000  0.5000000  )

     number of k points=    13
                       cart. coord. in units 2pi/alat
        k(    1) = (   0.0000000   0.0000000   0.0000000), wk =   0.0156250
        k(    2) = (   0.0000000   0.0000000   0.3061862), wk =   0.0312500
        k(    3) = (   0.0000000   0.0000000  -0.6123724), wk =   0.0156250
        k(    4) = (   0.0000000   0.2886751  -0.1020621), wk =   0.0937500
        k(    5) = (   0.0000000   0.2886751   0.2041241), wk =   0.0937500
        k(    6) = (   0.0000000   0.2886751  -0.7144345), wk =   0.0937500
        k(    7) = (   0.0000000   0.2886751  -0.4082483), wk =   0.0937500
        k(    8) = (   0.0000000  -0.5773503   0.2041241), wk =   0.0468750
        k(    9) = (   0.0000000  -0.5773503   0.5103104), wk =   0.0937500
        k(   10) = (   0.0000000  -0.5773503  -0.4082483), wk =   0.0468750
        k(   11) = (   0.2500000  -0.7216878   0.1020621), wk =   0.1875000
        k(   12) = (   0.2500000  -0.7216878   0.4082483), wk =   0.0937500
        k(   13) = (   0.2500000  -0.7216878  -0.2041241), wk =   0.0937500

                       cryst. coord.
        k(    1) = (   0.0000000   0.0000000   0.0000000), wk =   0.0156250
        k(    2) = (   0.0000000   0.0000000   0.2500000), wk =   0.0312500
        k(    3) = (   0.0000000   0.0000000  -0.5000000), wk =   0.0156250
        k(    4) = (   0.0000000   0.2500000   0.0000000), wk =   0.0937500
        k(    5) = (   0.0000000   0.2500000   0.2500000), wk =   0.0937500
        k(    6) = (   0.0000000   0.2500000  -0.5000000), wk =   0.0937500
        k(    7) = (   0.0000000   0.2500000  -0.2500000), wk =   0.0937500
        k(    8) = (   0.0000000  -0.5000000   0.0000000), wk =   0.0468750
        k(    9) = (   0.0000000  -0.5000000   0.2500000), wk =   0.0937500
        k(   10) = (   0.0000000  -0.5000000  -0.5000000), wk =   0.0468750
        k(   11) = (   0.2500000  -0.5000000   0.0000000), wk =   0.1875000
        k(   12) = (   0.2500000  -0.5000000   0.2500000), wk =   0.0937500
        k(   13) = (   0.2500000  -0.5000000  -0.2500000), wk =   0.0937500

     Dense  grid:     4645 G-vectors     FFT dimensions: (  24,  24,  24)

     Smooth grid:     3383 G-vectors     FFT dimensions: (  24,  24,  24)

     Dynamical RAM for                 wfc:       0.01 MB

     Dynamical RAM for     wfc (w. buffer):       0.07 MB

     Dynamical RAM for           str. fact:       0.01 MB

     Dynamical RAM for           local pot:       0.00 MB

     Dynamical RAM for          nlocal pot:       0.01 MB

     Dynamical RAM for                qrad:       0.48 MB

     Dynamical RAM for          rho,v,vnew:       0.18 MB

     Dynamical RAM for               rhoin:       0.06 MB

     Dynamical RAM for            rho*nmix:       0.38 MB

     Dynamical RAM for           G-vectors:       0.02 MB

     Dynamical RAM for          h,s,v(r/c):       0.01 MB

     Dynamical RAM for          <psi|beta>:       0.01 MB

     Dynamical RAM for                 psi:       0.02 MB

     Dynamical RAM for                hpsi:       0.02 MB

     Dynamical RAM for                spsi:       0.02 MB

     Dynamical RAM for      wfcinit/wfcrot:       0.03 MB

     Dynamical RAM for           addusdens:       0.34 MB

     Estimated static dynamical RAM per process >       0.91 MB

     Estimated max dynamical RAM per process >       1.63 MB

     Estimated total dynamical RAM >      34.59 MB

     Check: negative core charge=   -0.000015

     Initial potential from superposition of free atoms

     starting charge       7.9989, renormalised to       8.0000
     Starting wfcs are   16 randomized atomic wfcs
     Checking if some PAW data can be deallocated... 

     total cpu time spent up to now is        0.6 secs

     Self-consistent Calculation

     iteration #  1     ecut=    20.00 Ry     beta= 0.70
     Davidson diagonalization with overlap

---- Real-time Memory Report at c_bands before calling an iterative solver
            82 MiB given to the printing process from OS
             0 MiB allocation reported by mallinfo(arena+hblkhd)
           438 MiB available memory on the node where the printing process lives
------------------
     ethr =  1.00E-02,  avg # of iterations =  2.0

     Threshold (ethr) on eigenvalues was too large:
     Diagonalizing with lowered threshold

     Davidson diagonalization with overlap

---- Real-time Memory Report at c_bands before calling an iterative solver
            83 MiB given to the printing process from OS
             0 MiB allocation reported by mallinfo(arena+hblkhd)
           431 MiB available memory on the node where the printing process lives
------------------
     ethr =  6.78E-04,  avg # of iterations =  1.1

     total cpu time spent up to now is        0.8 secs

     total energy              =     -93.44880396 Ry
     estimated scf accuracy    <       0.05954091 Ry

     iteration #  2     ecut=    20.00 Ry     beta= 0.70
     Davidson diagonalization with overlap

---- Real-time Memory Report at c_bands before calling an iterative solver
            87 MiB given to the printing process from OS
             0 MiB allocation reported by mallinfo(arena+hblkhd)
           422 MiB available memory on the node where the printing process lives
------------------
     ethr =  7.44E-04,  avg # of iterations =  1.0

     total cpu time spent up to now is        0.8 secs

     total energy              =     -93.45092278 Ry
     estimated scf accuracy    <       0.00275050 Ry

     iteration #  3     ecut=    20.00 Ry     beta= 0.70
     Davidson diagonalization with overlap

---- Real-time Memory Report at c_bands before calling an iterative solver
            88 MiB given to the printing process from OS
             0 MiB allocation reported by mallinfo(arena+hblkhd)
           419 MiB available memory on the node where the printing process lives
------------------
     ethr =  3.44E-05,  avg # of iterations =  1.8

     total cpu time spent up to now is        0.9 secs

     total energy              =     -93.45116856 Ry
     estimated scf accuracy    <       0.00005432 Ry

     iteration #  4     ecut=    20.00 Ry     beta= 0.70
     Davidson diagonalization with overlap

---- Real-time Memory Report at c_bands before calling an iterative solver
            89 MiB given to the printing process from OS
             0 MiB allocation reported by mallinfo(arena+hblkhd)
           419 MiB available memory on the node where the printing process lives
------------------
     ethr =  6.79E-07,  avg # of iterations =  3.3

     total cpu time spent up to now is        0.9 secs

     End of self-consistent calculation

          k = 0.0000 0.0000 0.0000 (   411 PWs)   bands (ev):

    -5.7955  -5.7955   6.0157   6.0157   6.0634   6.0634   6.0634   6.0634

     occupation numbers 
     1.0000   1.0000   1.0000   1.0000   1.0000   1.0000   1.0000   1.0000

          k = 0.0000 0.0000 0.3062 (   410 PWs)   bands (ev):

    -5.0093  -5.0093   2.1413   2.1413   5.2769   5.2769   5.3079   5.3079

     occupation numbers 
     1.0000   1.0000   1.0000   1.0000   1.0000   1.0000   1.0000   1.0000

          k = 0.0000 0.0000-0.6124 (   410 PWs)   bands (ev):

    -3.5114  -3.5114  -0.8484  -0.8484   4.8388   4.8388   4.8702   4.8702

     occupation numbers 
     1.0000   1.0000   1.0000   1.0000   1.0000   1.0000   1.0000   1.0000

          k = 0.0000 0.2887-0.1021 (   410 PWs)   bands (ev):

    -5.0093  -5.0093   2.1413   2.1413   5.2769   5.2769   5.3079   5.3079

     occupation numbers 
     1.0000   1.0000   1.0000   1.0000   1.0000   1.0000   1.0000   1.0000

          k = 0.0000 0.2887 0.2041 (   415 PWs)   bands (ev):

    -4.7314  -4.7314   2.5155   2.5155   4.1756   4.1756   4.1841   4.1841

     occupation numbers 
     1.0000   1.0000   1.0000   1.0000   1.0000   1.0000   1.0000   1.0000

          k = 0.0000 0.2887-0.7144 (   416 PWs)   bands (ev):

    -3.1266  -3.1266  -0.2975  -0.2975   2.5608   2.5608   3.8671   3.8671

     occupation numbers 
     1.0000   1.0000   1.0000   1.0000   1.0000   1.0000   1.0000   1.0000

          k = 0.0000 0.2887-0.4082 (   413 PWs)   bands (ev):

    -3.7879  -3.7879   0.5885   0.5885   2.3528   2.3528   4.7301   4.7301

     occupation numbers 
     1.0000   1.0000   1.0000   1.0000   1.0000   1.0000   1.0000   1.0000

          k = 0.0000-0.5774 0.2041 (   410 PWs)   bands (ev):

    -3.5114  -3.5114  -0.8484  -0.8484   4.8388   4.8388   4.8702   4.8702

     occupation numbers 
     1.0000   1.0000   1.0000   1.0000   1.0000   1.0000   1.0000   1.0000

          k = 0.0000-0.5774 0.5103 (   416 PWs)   bands (ev):

    -3.1266  -3.1266  -0.2975  -0.2975   2.5608   2.5608   3.8671   3.8671

     occupation numbers 
     1.0000   1.0000   1.0000   1.0000   1.0000   1.0000   1.0000   1.0000

          k = 0.0000-0.5774-0.4082 (   444 PWs)   bands (ev):

    -1.7208  -1.7208  -1.7208  -1.7208   3.2288   3.2288   3.2288   3.2288

     occupation numbers 
     1.0000   1.0000   1.0000   1.0000   1.0000   1.0000   1.0000   1.0000

          k = 0.2500-0.7217 0.1021 (   416 PWs)   bands (ev):

    -3.1266  -3.1266  -0.2975  -0.2975   2.5608   2.5608   3.8671   3.8671

     occupation numbers 
     1.0000   1.0000   1.0000   1.0000   1.0000   1.0000   1.0000   1.0000

          k = 0.2500-0.7217 0.4082 (   413 PWs)   bands (ev):

    -3.7879  -3.7879   0.5885   0.5885   2.3528   2.3528   4.7301   4.7301

     occupation numbers 
     1.0000   1.0000   1.0000   1.0000   1.0000   1.0000   1.0000   1.0000

          k = 0.2500-0.7217-0.2041 (   412 PWs)   bands (ev):

    -1.5674  -1.5674  -1.5619  -1.5619   2.2529   2.2529   2.2657   2.2657

     occupation numbers 
     1.0000   1.0000   1.0000   1.0000   1.0000   1.0000   1.0000   1.0000

     highest occupied level (ev):     6.0634

!    total energy              =     -93.45120503 Ry
     total all-electron energy =     -1160.133263 Ry
     estimated scf accuracy    <       0.00000005 Ry

     The total energy is the sum of the following terms:
     one-electron contribution =       5.57617804 Ry
     hartree contribution      =       1.14000674 Ry
     xc contribution           =     -12.24271552 Ry
     ewald contribution        =     -16.67997836 Ry
     one-center paw contrib.   =     -71.24469594 Ry
      -> PAW hartree energy AE =       4.31611447 Ry
      -> PAW hartree energy PS =      -4.30055666 Ry
      -> PAW xc energy AE      =     -41.18577426 Ry
      -> PAW xc energy PS      =       5.54786847 Ry
      -> total E_H with PAW    =       1.15556455 Ry
      -> total E_XC with PAW   =     -47.88062130 Ry

     convergence has been achieved in   4 iterations

     Writing all to output data dir ./out/aiida.save/ :
     XML data file, charge density, pseudopotentials, collected wavefunctions
 
     init_run     :      0.05s CPU      0.25s WALL (       1 calls)
     electrons    :      0.22s CPU      0.39s WALL (       1 calls)

     Called by init_run:
     wfcinit      :      0.01s CPU      0.09s WALL (       1 calls)
     wfcinit:atom :      0.00s CPU      0.00s WALL (       7 calls)
     wfcinit:wfcr :      0.01s CPU      0.09s WALL (       7 calls)
     potinit      :      0.01s CPU      0.06s WALL (       1 calls)
     hinit0       :      0.02s CPU      0.07s WALL (       1 calls)

     Called by electrons:
     c_bands      :      0.08s CPU      0.11s WALL (       5 calls)
     sum_band     :      0.04s CPU      0.07s WALL (       5 calls)
     v_of_rho     :      0.01s CPU      0.01s WALL (       5 calls)
     v_h          :      0.00s CPU      0.00s WALL (       5 calls)
     v_xc         :      0.01s CPU      0.01s WALL (       5 calls)
     newd         :      0.01s CPU      0.02s WALL (       5 calls)
     PAW_pot      :      0.06s CPU      0.11s WALL (       5 calls)
     mix_rho      :      0.00s CPU      0.00s WALL (       5 calls)

     Called by c_bands:
     init_us_2    :      0.00s CPU      0.00s WALL (      77 calls)
     init_us_2:cp :      0.00s CPU      0.00s WALL (      77 calls)
     cegterg      :      0.08s CPU      0.10s WALL (      35 calls)

     Called by sum_band:
     sum_band:wei :      0.00s CPU      0.00s WALL (       5 calls)
     sum_band:loo :      0.02s CPU      0.02s WALL (       5 calls)
     sum_band:buf :      0.00s CPU      0.00s WALL (      35 calls)
     sum_band:ini :      0.00s CPU      0.00s WALL (      35 calls)
     sum_band:cal :      0.00s CPU      0.00s WALL (      35 calls)
     sum_band:bec :      0.00s CPU      0.00s WALL (      35 calls)
     addusdens    :      0.00s CPU      0.01s WALL (       5 calls)
                                        0.00s GPU  (       5 calls)
     addusd:skk   :      0.00s CPU      0.00s WALL (       5 calls)
                                        0.00s GPU  (       5 calls)

     Called by *egterg:
     cdiaghg      :      0.01s CPU      0.09s WALL (      94 calls)
     cegterg:over :      0.00s CPU      0.00s WALL (      66 calls)
     cegterg:upda :      0.00s CPU      0.00s WALL (      66 calls)
     cegterg:last :      0.00s CPU      0.00s WALL (      65 calls)
     h_psi        :      0.07s CPU      0.09s WALL (     108 calls)
     s_psi        :      0.00s CPU      0.00s WALL (     108 calls)
     g_psi        :      0.00s CPU      0.00s WALL (      66 calls)

     Called by h_psi:
     h_psi:calbec :      0.00s CPU      0.01s WALL (     108 calls)
     vloc_psi     :      0.07s CPU      0.08s WALL (     108 calls)
     add_vuspsi   :      0.00s CPU      0.00s WALL (     108 calls)

     General routines
     calbec       :      0.00s CPU      0.01s WALL (     143 calls)
     fft          :      0.01s CPU      0.05s WALL (     115 calls)
     ffts         :      0.00s CPU      0.01s WALL (      40 calls)
     fftw         :      0.07s CPU      0.08s WALL (    3920 calls)
     interpolate  :      0.00s CPU      0.00s WALL (      20 calls)
 
     Parallel routines

     PAW routines
     PAW_pot      :      0.06s CPU      0.11s WALL (       5 calls)
     PAW_symme    :      0.00s CPU      0.01s WALL (      10 calls)
 
     PWSCF        :      0.45s CPU      1.08s WALL

 
   This run was terminated on:  18:14:37  19Apr2025            

=------------------------------------------------------------------------------=
   JOB DONE.
=------------------------------------------------------------------------------=
