
     Program PWSCF v.7.3 starts on 20Apr2025 at 13:21:58 

     This program is part of the open-source Quantum ESPRESSO suite
     for quantum simulation of materials; please cite
         "P. Giannozzi et al., J. Phys.:Condens. Matter 21 395502 (2009);
         "P. Giannozzi et al., J. Phys.:Condens. Matter 29 465901 (2017);
         "P. Giannozzi et al., J. Chem. Phys. 152 154105 (2020);
          URL http://www.quantum-espresso.org", 
     in publications or presentations arising from this work. More details at
     http://www.quantum-espresso.org/quote

     Parallel version (MPI), running on    12 processors

     MPI processes distributed on     1 nodes
     880133 MiB available memory on the printing compute node when the environment starts
 
     Reading input from aiida.in

     Current dimensions of program PWSCF are:
     Max number of different atomic species (ntypx) = 10
     Max number of k-points (npk) =  40000
     Max angular momentum in pseudopotentials (lmaxx) =  4
     file Si.rel-pbe-n-kjpaw_psl.0.1.UPF: wavefunction(s)  3S renormalized

     Atomic positions and unit cell read from directory:
     ./out/aiida.save/
 
 
     R & G space division:  proc/nbgrp/npool/nimage =      12
     Subspace diagonalization in iterative solution of the eigenvalue problem:
     a serial algorithm will be used

 
     Parallelization info
     --------------------
     sticks:   dense  smooth     PW     G-vecs:    dense   smooth      PW
     Min          30      25      7                  386      281      49
     Max          31      26      8                  388      283      54
     Sum         367     301     91                 4645     3383     609
 
     Using Slab Decomposition
 


     bravais-lattice index     =            0
     lattice parameter (alat)  =       7.3075  a.u.
     unit-cell volume          =     275.9279 (a.u.)^3
     number of atoms/cell      =            2
     number of atomic types    =            1
     number of electrons       =         8.00
     number of Kohn-Sham states=           32
     kinetic-energy cutoff     =      20.0000  Ry
     charge density cutoff     =     100.0000  Ry
     Exchange-correlation= SLA  PW   PBX  PBC
                           (   1   4   3   4   0   0   0)
     Non magnetic calculation with spin-orbit


     celldm(1)=   7.307523  celldm(2)=   0.000000  celldm(3)=   0.000000
     celldm(4)=   0.000000  celldm(5)=   0.000000  celldm(6)=   0.000000

     crystal axes: (cart. coord. in units of alat)
               a(1) = (   1.000000   0.000000   0.000000 )  
               a(2) = (   0.500000   0.866025   0.000000 )  
               a(3) = (   0.500000   0.288675   0.816497 )  

     reciprocal axes: (cart. coord. in units 2 pi/alat)
               b(1) = (  1.000000 -0.577350 -0.408248 )  
               b(2) = (  0.000000  1.154701 -0.408248 )  
               b(3) = (  0.000000  0.000000  1.224745 )  


     PseudoPot. # 1 for Si read from file:
     ./pseudo/Si.rel-pbe-n-kjpaw_psl.0.1.UPF
     MD5 check sum: 67eb1bc5c689d7b48afd963eedacb1f1
     Pseudo is Projector augmented-wave + core cor, Zval =  4.0
     Generated using "atomic" code by A. Dal Corso  v.5.0.2 svn rev. 9415
     Shape of augmentation charge: PSQ
     Using radial grid of 1141 points,  6 beta functions with: 
                l(1) =   0
                l(2) =   0
                l(3) =   1
                l(4) =   1
                l(5) =   1
                l(6) =   1
     Q(r) pseudized with 0 coefficients 


     atomic species   valence    mass     pseudopotential
     Si                4.00    28.08500     Si( 1.00)

     No symmetry found


                                    s                        frac. trans.

      isym =  1     identity                                     

 cryst.   s( 1) = (     1          0          0      )
                  (     0          1          0      )
                  (     0          0          1      )

 cart.    s( 1) = (  1.0000000  0.0000000  0.0000000 )
                  (  0.0000000  1.0000000  0.0000000 )
                  (  0.0000000  0.0000000  1.0000000 )


   Cartesian axes

     site n.     atom                  positions (alat units)
         1        Si     tau(   1) = (   1.5000000   0.8660254   0.6123724  )
         2        Si     tau(   2) = (   1.0000000   0.5773503   0.4082483  )

   Crystallographic axes

     site n.     atom                  positions (cryst. coord.)
         1        Si     tau(   1) = (  0.7500000  0.7500000  0.7500000  )
         2        Si     tau(   2) = (  0.5000000  0.5000000  0.5000000  )

     number of k points=     8
                       cart. coord. in units 2pi/alat
        k(    1) = (   0.0000000   0.0000000   0.0000000), wk =   0.1250000
        k(    2) = (   0.0000000   0.0000000   0.6123724), wk =   0.1250000
        k(    3) = (   0.0000000   0.5773503  -0.2041241), wk =   0.1250000
        k(    4) = (   0.0000000   0.5773503   0.4082483), wk =   0.1250000
        k(    5) = (   0.5000000  -0.2886751  -0.2041241), wk =   0.1250000
        k(    6) = (   0.5000000  -0.2886751   0.4082483), wk =   0.1250000
        k(    7) = (   0.5000000   0.2886751  -0.4082483), wk =   0.1250000
        k(    8) = (   0.5000000   0.2886751   0.2041241), wk =   0.1250000

                       cryst. coord.
        k(    1) = (   0.0000000   0.0000000   0.0000000), wk =   0.1250000
        k(    2) = (   0.0000000   0.0000000   0.5000000), wk =   0.1250000
        k(    3) = (   0.0000000   0.5000000   0.0000000), wk =   0.1250000
        k(    4) = (   0.0000000   0.5000000   0.5000000), wk =   0.1250000
        k(    5) = (   0.5000000   0.0000000  -0.0000000), wk =   0.1250000
        k(    6) = (   0.5000000   0.0000000   0.5000000), wk =   0.1250000
        k(    7) = (   0.5000000   0.5000000  -0.0000000), wk =   0.1250000
        k(    8) = (   0.5000000   0.5000000   0.5000000), wk =   0.1250000

     Dense  grid:     4645 G-vectors     FFT dimensions: (  24,  24,  24)

     Smooth grid:     3383 G-vectors     FFT dimensions: (  24,  24,  24)

     Dynamical RAM for                 wfc:       0.03 MB

     Dynamical RAM for     wfc (w. buffer):       0.03 MB

     Dynamical RAM for           str. fact:       0.01 MB

     Dynamical RAM for           local pot:       0.00 MB

     Dynamical RAM for          nlocal pot:       0.01 MB

     Dynamical RAM for                qrad:       0.48 MB

     Dynamical RAM for          rho,v,vnew:       0.18 MB

     Dynamical RAM for           G-vectors:       0.02 MB

     Dynamical RAM for          h,s,v(r/c):       0.19 MB

     Dynamical RAM for          <psi|beta>:       0.03 MB

     Dynamical RAM for                 psi:       0.07 MB

     Dynamical RAM for                hpsi:       0.07 MB

     Dynamical RAM for                spsi:       0.07 MB

     Dynamical RAM for      wfcinit/wfcrot:       0.07 MB

     Dynamical RAM for           addusdens:       0.67 MB

     Estimated static dynamical RAM per process >       0.82 MB

     Estimated max dynamical RAM per process >       1.49 MB

     Estimated total dynamical RAM >      17.88 MB

     Check: negative core charge=   -0.000015

     The potential is recalculated from file :
     ./out/aiida.save/charge-density

     Starting wfcs are   16 randomized atomic wfcs +   16 random wfcs
     Checking if some PAW data can be deallocated... 

     Band Structure Calculation
     Davidson diagonalization with overlap

     Computing kpt #:     1  of     8
     total cpu time spent up to now is        0.2 secs

     Computing kpt #:     2  of     8
     total cpu time spent up to now is        0.3 secs

     Computing kpt #:     3  of     8
     total cpu time spent up to now is        0.4 secs

     Computing kpt #:     4  of     8
     total cpu time spent up to now is        0.5 secs

     Computing kpt #:     5  of     8
     total cpu time spent up to now is        0.5 secs

     Computing kpt #:     6  of     8
     total cpu time spent up to now is        0.6 secs

     Computing kpt #:     7  of     8
     total cpu time spent up to now is        0.7 secs

     Computing kpt #:     8  of     8
     total cpu time spent up to now is        0.8 secs

     ethr =  1.25E-08,  avg # of iterations = 25.5

     total cpu time spent up to now is        0.8 secs

     End of band structure calculation

          k = 0.0000 0.0000 0.0000 (   411 PWs)   bands (ev):

    -5.5879  -5.5879   6.2696   6.2696   6.3169   6.3169   6.3169   6.3169
     8.7147   8.7147   8.7491   8.7491   8.7491   8.7491   9.4206   9.4206
    13.9155  13.9155  13.9155  13.9155  14.1639  14.1639  17.3388  17.3388
    17.3492  17.3492  17.3492  17.3492  21.5879  21.5879  29.3810  29.3843

     occupation numbers 
     1.0000   1.0000   1.0000   1.0000   1.0000   1.0000   1.0000   1.0000
     0.0000   0.0000   0.0000   0.0000   0.0000   0.0000   0.0000   0.0000
     0.0000   0.0000   0.0000   0.0000   0.0000   0.0000   0.0000   0.0000
     0.0000   0.0000   0.0000   0.0000   0.0000   0.0000   0.0000   0.0000

          k = 0.0000 0.0000 0.6124 (   410 PWs)   bands (ev):

    -3.2877  -3.2877  -0.6502  -0.6502   5.0680   5.0680   5.0991   5.0991
     7.7204   7.7204   9.5223   9.5223   9.5369   9.5369  13.9231  13.9231
    16.7731  16.7731  16.7731  16.7731  17.4346  17.4346  17.4582  17.4582
    17.5335  17.5335  18.9878  18.9878  25.6006  25.6006  25.9952  25.9952

     occupation numbers 
     1.0000   1.0000   1.0000   1.0000   1.0000   1.0000   1.0000   1.0000
     0.0000   0.0000   0.0000   0.0000   0.0000   0.0000   0.0000   0.0000
     0.0000   0.0000   0.0000   0.0000   0.0000   0.0000   0.0000   0.0000
     0.0000   0.0000   0.0000   0.0000   0.0000   0.0000   0.0000   0.0000

          k = 0.0000 0.5774-0.2041 (   410 PWs)   bands (ev):

    -3.2877  -3.2877  -0.6502  -0.6502   5.0680   5.0680   5.0992   5.0992
     7.7204   7.7204   9.5223   9.5223   9.5369   9.5369  13.9231  13.9231
    16.7730  16.7730  16.7731  16.7731  17.4346  17.4346  17.4582  17.4582
    17.5335  17.5335  18.9878  18.9878  25.6006  25.6006  25.9953  25.9953

     occupation numbers 
     1.0000   1.0000   1.0000   1.0000   1.0000   1.0000   1.0000   1.0000
     0.0000   0.0000   0.0000   0.0000   0.0000   0.0000   0.0000   0.0000
     0.0000   0.0000   0.0000   0.0000   0.0000   0.0000   0.0000   0.0000
     0.0000   0.0000   0.0000   0.0000   0.0000   0.0000   0.0000   0.0000

          k = 0.0000 0.5774 0.4082 (   444 PWs)   bands (ev):

    -1.4951  -1.4951  -1.4951  -1.4951   3.4284   3.4284   3.4284   3.4284
     6.9457   6.9457   6.9457   6.9457  16.1781  16.1781  16.1781  16.1781
    17.2503  17.2503  17.2503  17.2503  18.6680  18.6680  18.6680  18.6680
    19.0994  19.0994  19.0994  19.0994  25.0603  25.0603  25.0604  25.0604

     occupation numbers 
     1.0000   1.0000   1.0000   1.0000   1.0000   1.0000   1.0000   1.0000
     0.0000   0.0000   0.0000   0.0000   0.0000   0.0000   0.0000   0.0000
     0.0000   0.0000   0.0000   0.0000   0.0000   0.0000   0.0000   0.0000
     0.0000   0.0000   0.0000   0.0000   0.0000   0.0000   0.0000   0.0000

          k = 0.5000-0.2887-0.2041 (   410 PWs)   bands (ev):

    -3.2877  -3.2877  -0.6502  -0.6502   5.0680   5.0680   5.0992   5.0992
     7.7204   7.7204   9.5223   9.5223   9.5369   9.5369  13.9231  13.9231
    16.7730  16.7730  16.7731  16.7731  17.4346  17.4346  17.4582  17.4582
    17.5335  17.5335  18.9878  18.9878  25.6006  25.6006  25.9953  25.9953

     occupation numbers 
     1.0000   1.0000   1.0000   1.0000   1.0000   1.0000   1.0000   1.0000
     0.0000   0.0000   0.0000   0.0000   0.0000   0.0000   0.0000   0.0000
     0.0000   0.0000   0.0000   0.0000   0.0000   0.0000   0.0000   0.0000
     0.0000   0.0000   0.0000   0.0000   0.0000   0.0000   0.0000   0.0000

          k = 0.5000-0.2887 0.4082 (   444 PWs)   bands (ev):

    -1.4951  -1.4951  -1.4951  -1.4951   3.4284   3.4284   3.4284   3.4284
     6.9457   6.9457   6.9457   6.9457  16.1781  16.1781  16.1781  16.1781
    17.2503  17.2503  17.2503  17.2503  18.6680  18.6680  18.6680  18.6680
    19.0994  19.0994  19.0994  19.0994  25.0603  25.0603  25.0604  25.0604

     occupation numbers 
     1.0000   1.0000   1.0000   1.0000   1.0000   1.0000   1.0000   1.0000
     0.0000   0.0000   0.0000   0.0000   0.0000   0.0000   0.0000   0.0000
     0.0000   0.0000   0.0000   0.0000   0.0000   0.0000   0.0000   0.0000
     0.0000   0.0000   0.0000   0.0000   0.0000   0.0000   0.0000   0.0000

          k = 0.5000 0.2887-0.4082 (   444 PWs)   bands (ev):

    -1.4951  -1.4951  -1.4951  -1.4951   3.4284   3.4284   3.4284   3.4284
     6.9457   6.9457   6.9457   6.9457  16.1781  16.1781  16.1781  16.1781
    17.2503  17.2503  17.2503  17.2503  18.6680  18.6680  18.6680  18.6680
    19.0994  19.0994  19.0994  19.0994  25.0603  25.0603  25.0604  25.0604

     occupation numbers 
     1.0000   1.0000   1.0000   1.0000   1.0000   1.0000   1.0000   1.0000
     0.0000   0.0000   0.0000   0.0000   0.0000   0.0000   0.0000   0.0000
     0.0000   0.0000   0.0000   0.0000   0.0000   0.0000   0.0000   0.0000
     0.0000   0.0000   0.0000   0.0000   0.0000   0.0000   0.0000   0.0000

          k = 0.5000 0.2887 0.2041 (   410 PWs)   bands (ev):

    -3.2877  -3.2877  -0.6502  -0.6502   5.0680   5.0680   5.0992   5.0992
     7.7204   7.7204   9.5223   9.5223   9.5369   9.5369  13.9231  13.9231
    16.7730  16.7730  16.7731  16.7731  17.4346  17.4346  17.4582  17.4582
    17.5335  17.5335  18.9878  18.9878  25.6006  25.6006  25.9953  25.9953

     occupation numbers 
     1.0000   1.0000   1.0000   1.0000   1.0000   1.0000   1.0000   1.0000
     0.0000   0.0000   0.0000   0.0000   0.0000   0.0000   0.0000   0.0000
     0.0000   0.0000   0.0000   0.0000   0.0000   0.0000   0.0000   0.0000
     0.0000   0.0000   0.0000   0.0000   0.0000   0.0000   0.0000   0.0000

     highest occupied, lowest unoccupied level (ev):     6.3169    6.9457

     Writing all to output data dir ./out/aiida.save/ :
     XML data file, pseudopotentials, collected wavefunctions
 
     init_run     :      0.03s CPU      0.06s WALL (       1 calls)
     electrons    :      0.59s CPU      0.63s WALL (       1 calls)

     Called by init_run:
     wfcinit      :      0.00s CPU      0.00s WALL (       1 calls)
     wfcinit:atom :      0.00s CPU      0.00s WALL (       8 calls)
     wfcinit:wfcr :      0.03s CPU      0.03s WALL (       8 calls)
     potinit      :      0.01s CPU      0.02s WALL (       1 calls)
     hinit0       :      0.02s CPU      0.04s WALL (       1 calls)

     Called by electrons:
     c_bands      :      0.59s CPU      0.63s WALL (       1 calls)
     v_of_rho     :      0.00s CPU      0.00s WALL (       1 calls)
     v_h          :      0.00s CPU      0.00s WALL (       1 calls)
     v_xc         :      0.00s CPU      0.00s WALL (       1 calls)
     newd         :      0.00s CPU      0.00s WALL (       1 calls)
     PAW_pot      :      0.01s CPU      0.01s WALL (       1 calls)

     Called by c_bands:
     init_us_2    :      0.00s CPU      0.00s WALL (       8 calls)
     init_us_2:cp :      0.00s CPU      0.00s WALL (       8 calls)
     cegterg      :      0.56s CPU      0.60s WALL (      12 calls)

     Called by sum_band:

     Called by *egterg:
     cdiaghg      :      0.18s CPU      0.19s WALL (     212 calls)
     cegterg:over :      0.02s CPU      0.02s WALL (     204 calls)
     cegterg:upda :      0.00s CPU      0.00s WALL (     204 calls)
     cegterg:last :      0.01s CPU      0.01s WALL (     121 calls)
     h_psi        :      0.36s CPU      0.39s WALL (     224 calls)
     s_psi        :      0.00s CPU      0.01s WALL (     224 calls)
     g_psi        :      0.00s CPU      0.00s WALL (     204 calls)

     Called by h_psi:
     h_psi:calbec :      0.01s CPU      0.01s WALL (     224 calls)
     vloc_psi     :      0.35s CPU      0.38s WALL (     224 calls)
     add_vuspsi   :      0.01s CPU      0.01s WALL (     224 calls)

     General routines
     calbec       :      0.01s CPU      0.01s WALL (     224 calls)
     fft          :      0.01s CPU      0.03s WALL (      19 calls)
     ffts         :      0.00s CPU      0.00s WALL (       4 calls)
     fftw         :      0.33s CPU      0.35s WALL (   16176 calls)
     interpolate  :      0.00s CPU      0.00s WALL (       4 calls)
     davcio       :      0.00s CPU      0.00s WALL (      16 calls)
 
     Parallel routines

     PAW routines
     PAW_pot      :      0.01s CPU      0.01s WALL (       1 calls)
 
     PWSCF        :      0.71s CPU      0.84s WALL

 
   This run was terminated on:  13:21:59  20Apr2025            

=------------------------------------------------------------------------------=
   JOB DONE.
=------------------------------------------------------------------------------=
