
     Program PWSCF v.7.3 starts on  3Apr2025 at  1:14:23 

     This program is part of the open-source Quantum ESPRESSO suite
     for quantum simulation of materials; please cite
         "P. Giannozzi et al., J. Phys.:Condens. Matter 21 395502 (2009);
         "P. Giannozzi et al., J. Phys.:Condens. Matter 29 465901 (2017);
         "P. Giannozzi et al., J. Chem. Phys. 152 154105 (2020);
          URL http://www.quantum-espresso.org", 
     in publications or presentations arising from this work. More details at
     http://www.quantum-espresso.org/quote

     Parallel version (MPI), running on    12 processors

     MPI processes distributed on     1 nodes
     1014653 MiB available memory on the printing compute node when the environment starts
 
     Reading input from aiida.in

     Current dimensions of program PWSCF are:
     Max number of different atomic species (ntypx) = 10
     Max number of k-points (npk) =  40000
     Max angular momentum in pseudopotentials (lmaxx) =  4

     Atomic positions and unit cell read from directory:
     ./out/aiida.save/
 
     Message from routine setup:
     using ibrav=0 with symmetry is DISCOURAGED, use correct ibrav instead
 
     R & G space division:  proc/nbgrp/npool/nimage =      12
     Subspace diagonalization in iterative solution of the eigenvalue problem:
     a serial algorithm will be used

 
     Parallelization info
     --------------------
     sticks:   dense  smooth     PW     G-vecs:    dense   smooth      PW
     Min          73      36     12                 1437      514      94
     Max          74      37     14                 1439      518      95
     Sum         877     439    151                17261     6183    1139
 
     Using Slab Decomposition
 


     bravais-lattice index     =            0
     lattice parameter (alat)  =       7.3075  a.u.
     unit-cell volume          =     275.9279 (a.u.)^3
     number of atoms/cell      =            2
     number of atomic types    =            1
     number of electrons       =         8.00
     number of Kohn-Sham states=            4
     kinetic-energy cutoff     =      30.0000  Ry
     charge density cutoff     =     240.0000  Ry
     Exchange-correlation= PBE
                           (   1   4   3   4   0   0   0)

     celldm(1)=   7.307523  celldm(2)=   0.000000  celldm(3)=   0.000000
     celldm(4)=   0.000000  celldm(5)=   0.000000  celldm(6)=   0.000000

     crystal axes: (cart. coord. in units of alat)
               a(1) = (   1.000000   0.000000   0.000000 )  
               a(2) = (   0.500000   0.866025   0.000000 )  
               a(3) = (   0.500000   0.288675   0.816497 )  

     reciprocal axes: (cart. coord. in units 2 pi/alat)
               b(1) = (  1.000000 -0.577350 -0.408248 )  
               b(2) = (  0.000000  1.154701 -0.408248 )  
               b(3) = (  0.000000  0.000000  1.224745 )  


     PseudoPot. # 1 for Si read from file:
     ./pseudo/Si.pbe-n-rrkjus_psl.1.0.0.UPF
     MD5 check sum: 0b0bb1205258b0d07b9f9672cf965d36
     Pseudo is Ultrasoft + core correction, Zval =  4.0
     Generated using "atomic" code by A. Dal Corso  v.5.1
     Using radial grid of 1141 points,  6 beta functions with: 
                l(1) =   0
                l(2) =   0
                l(3) =   1
                l(4) =   1
                l(5) =   2
                l(6) =   2
     Q(r) pseudized with 0 coefficients 


     atomic species   valence    mass     pseudopotential
     Si                4.00    28.08500     Si( 1.00)

     12 Sym. Ops., with inversion, found ( 6 have fractional translation)


                                    s                        frac. trans.

      isym =  1     identity                                     

 cryst.   s( 1) = (     1          0          0      )
                  (     0          1          0      )
                  (     0          0          1      )

 cart.    s( 1) = (  1.0000000  0.0000000  0.0000000 )
                  (  0.0000000  1.0000000  0.0000000 )
                  (  0.0000000  0.0000000  1.0000000 )


      isym =  2     180 deg rotation - cart. axis [1,0,0]        

 cryst.   s( 2) = (     1          0          0      )    f =( -0.2500000 )
                  (     1         -1          0      )       ( -0.2500000 )
                  (     1          0         -1      )       ( -0.2500000 )

 cart.    s( 2) = (  1.0000000  0.0000000  0.0000000 )    f =( -0.5000000 )
                  (  0.0000000 -1.0000000  0.0000000 )       ( -0.2886751 )
                  (  0.0000000  0.0000000 -1.0000000 )       ( -0.2041241 )


      isym =  3     120 deg rotation - cryst. axis [0,0,1]       

 cryst.   s( 3) = (    -1          1          0      )
                  (    -1          0          0      )
                  (    -1          0          1      )

 cart.    s( 3) = ( -0.5000000 -0.8660254  0.0000000 )
                  (  0.8660254 -0.5000000  0.0000000 )
                  (  0.0000000  0.0000000  1.0000000 )


      isym =  4     120 deg rotation - cryst. axis [0,0,-1]      

 cryst.   s( 4) = (     0         -1          0      )
                  (     1         -1          0      )
                  (     0         -1          1      )

 cart.    s( 4) = ( -0.5000000  0.8660254 -0.0000000 )
                  ( -0.8660254 -0.5000000  0.0000000 )
                  (  0.0000000  0.0000000  1.0000000 )


      isym =  5     180 deg rotation - cryst. axis [0,1,0]       

 cryst.   s( 5) = (     0         -1          0      )    f =( -0.2500000 )
                  (    -1          0          0      )       ( -0.2500000 )
                  (     0          0         -1      )       ( -0.2500000 )

 cart.    s( 5) = ( -0.5000000 -0.8660254  0.0000000 )    f =( -0.5000000 )
                  ( -0.8660254  0.5000000 -0.0000000 )       ( -0.2886751 )
                  (  0.0000000  0.0000000 -1.0000000 )       ( -0.2041241 )


      isym =  6     180 deg rotation - cryst. axis [1,1,0]       

 cryst.   s( 6) = (    -1          1          0      )    f =( -0.2500000 )
                  (     0          1          0      )       ( -0.2500000 )
                  (     0          1         -1      )       ( -0.2500000 )

 cart.    s( 6) = ( -0.5000000  0.8660254 -0.0000000 )    f =( -0.5000000 )
                  (  0.8660254  0.5000000 -0.0000000 )       ( -0.2886751 )
                  (  0.0000000  0.0000000 -1.0000000 )       ( -0.2041241 )


      isym =  7     inversion                                    

 cryst.   s( 7) = (    -1          0          0      )    f =( -0.2500000 )
                  (     0         -1          0      )       ( -0.2500000 )
                  (     0          0         -1      )       ( -0.2500000 )

 cart.    s( 7) = ( -1.0000000  0.0000000  0.0000000 )    f =( -0.5000000 )
                  (  0.0000000 -1.0000000  0.0000000 )       ( -0.2886751 )
                  (  0.0000000  0.0000000 -1.0000000 )       ( -0.2041241 )


      isym =  8     inv. 180 deg rotation - cart. axis [1,0,0]   

 cryst.   s( 8) = (    -1          0          0      )
                  (    -1          1          0      )
                  (    -1          0          1      )

 cart.    s( 8) = ( -1.0000000  0.0000000  0.0000000 )
                  (  0.0000000  1.0000000  0.0000000 )
                  (  0.0000000  0.0000000  1.0000000 )


      isym =  9     inv. 120 deg rotation - cryst. axis [0,0,1]  

 cryst.   s( 9) = (     1         -1          0      )    f =( -0.2500000 )
                  (     1          0          0      )       ( -0.2500000 )
                  (     1          0         -1      )       ( -0.2500000 )

 cart.    s( 9) = (  0.5000000  0.8660254 -0.0000000 )    f =( -0.5000000 )
                  ( -0.8660254  0.5000000 -0.0000000 )       ( -0.2886751 )
                  (  0.0000000  0.0000000 -1.0000000 )       ( -0.2041241 )


      isym = 10     inv. 120 deg rotation - cryst. axis [0,0,-1] 

 cryst.   s(10) = (     0          1          0      )    f =( -0.2500000 )
                  (    -1          1          0      )       ( -0.2500000 )
                  (     0          1         -1      )       ( -0.2500000 )

 cart.    s(10) = (  0.5000000 -0.8660254  0.0000000 )    f =( -0.5000000 )
                  (  0.8660254  0.5000000 -0.0000000 )       ( -0.2886751 )
                  (  0.0000000  0.0000000 -1.0000000 )       ( -0.2041241 )


      isym = 11     inv. 180 deg rotation - cryst. axis [0,1,0]  

 cryst.   s(11) = (     0          1          0      )
                  (     1          0          0      )
                  (     0          0          1      )

 cart.    s(11) = (  0.5000000  0.8660254 -0.0000000 )
                  (  0.8660254 -0.5000000  0.0000000 )
                  (  0.0000000  0.0000000  1.0000000 )


      isym = 12     inv. 180 deg rotation - cryst. axis [1,1,0]  

 cryst.   s(12) = (     1         -1          0      )
                  (     0         -1          0      )
                  (     0         -1          1      )

 cart.    s(12) = (  0.5000000 -0.8660254  0.0000000 )
                  ( -0.8660254 -0.5000000  0.0000000 )
                  (  0.0000000  0.0000000  1.0000000 )


   Cartesian axes

     site n.     atom                  positions (alat units)
         1        Si     tau(   1) = (   1.5000000   0.8660254   0.6123724  )
         2        Si     tau(   2) = (   1.0000000   0.5773503   0.4082483  )

   Crystallographic axes

     site n.     atom                  positions (cryst. coord.)
         1        Si     tau(   1) = (  0.7500000  0.7500000  0.7500000  )
         2        Si     tau(   2) = (  0.5000000  0.5000000  0.5000000  )

     number of k points=    65
                       cart. coord. in units 2pi/alat
        k(    1) = (   0.0000000   0.0000000   0.0000000), wk =   0.0039062
        k(    2) = (   0.0000000   0.0000000   0.1530931), wk =   0.0078125
        k(    3) = (   0.0000000   0.0000000   0.3061862), wk =   0.0078125
        k(    4) = (   0.0000000   0.0000000   0.4592793), wk =   0.0078125
        k(    5) = (   0.0000000   0.0000000  -0.6123724), wk =   0.0039062
        k(    6) = (   0.0000000   0.1443376  -0.0510310), wk =   0.0234375
        k(    7) = (   0.0000000   0.1443376   0.1020621), wk =   0.0234375
        k(    8) = (   0.0000000   0.1443376   0.2551552), wk =   0.0234375
        k(    9) = (   0.0000000   0.1443376   0.4082483), wk =   0.0234375
        k(   10) = (   0.0000000   0.1443376  -0.6634035), wk =   0.0234375
        k(   11) = (   0.0000000   0.1443376  -0.5103104), wk =   0.0234375
        k(   12) = (   0.0000000   0.1443376  -0.3572173), wk =   0.0234375
        k(   13) = (   0.0000000   0.1443376  -0.2041241), wk =   0.0234375
        k(   14) = (   0.0000000   0.2886751  -0.1020621), wk =   0.0234375
        k(   15) = (   0.0000000   0.2886751   0.0510310), wk =   0.0234375
        k(   16) = (   0.0000000   0.2886751   0.2041241), wk =   0.0234375
        k(   17) = (   0.0000000   0.2886751   0.3572173), wk =   0.0234375
        k(   18) = (   0.0000000   0.2886751  -0.7144345), wk =   0.0234375
        k(   19) = (   0.0000000   0.2886751  -0.5613414), wk =   0.0234375
        k(   20) = (   0.0000000   0.2886751  -0.4082483), wk =   0.0234375
        k(   21) = (   0.0000000   0.2886751  -0.2551552), wk =   0.0234375
        k(   22) = (   0.0000000   0.4330127  -0.1530931), wk =   0.0234375
        k(   23) = (   0.0000000   0.4330127  -0.0000000), wk =   0.0234375
        k(   24) = (   0.0000000   0.4330127   0.1530931), wk =   0.0234375
        k(   25) = (   0.0000000   0.4330127   0.3061862), wk =   0.0234375
        k(   26) = (   0.0000000   0.4330127  -0.7654655), wk =   0.0234375
        k(   27) = (   0.0000000   0.4330127  -0.6123724), wk =   0.0234375
        k(   28) = (   0.0000000   0.4330127  -0.4592793), wk =   0.0234375
        k(   29) = (   0.0000000   0.4330127  -0.3061862), wk =   0.0234375
        k(   30) = (   0.0000000  -0.5773503   0.2041241), wk =   0.0117188
        k(   31) = (   0.0000000  -0.5773503   0.3572173), wk =   0.0234375
        k(   32) = (   0.0000000  -0.5773503   0.5103104), wk =   0.0234375
        k(   33) = (   0.0000000  -0.5773503   0.6634035), wk =   0.0234375
        k(   34) = (   0.0000000  -0.5773503  -0.4082483), wk =   0.0117188
        k(   35) = (   0.1250000   0.2165064  -0.1530931), wk =   0.0468750
        k(   36) = (   0.1250000   0.2165064  -0.0000000), wk =   0.0234375
        k(   37) = (   0.1250000   0.2165064   0.3061862), wk =   0.0468750
        k(   38) = (   0.1250000   0.2165064  -0.7654655), wk =   0.0468750
        k(   39) = (   0.1250000   0.2165064  -0.6123724), wk =   0.0234375
        k(   40) = (   0.1250000   0.3608439  -0.2041241), wk =   0.0468750
        k(   41) = (   0.1250000   0.3608439  -0.0510310), wk =   0.0468750
        k(   42) = (   0.1250000   0.3608439   0.1020621), wk =   0.0468750
        k(   43) = (   0.1250000   0.3608439   0.2551552), wk =   0.0468750
        k(   44) = (   0.1250000   0.3608439  -0.8164966), wk =   0.0468750
        k(   45) = (   0.1250000   0.3608439  -0.6634035), wk =   0.0468750
        k(   46) = (   0.1250000   0.3608439  -0.5103104), wk =   0.0468750
        k(   47) = (   0.1250000   0.3608439  -0.3572173), wk =   0.0468750
        k(   48) = (   0.1250000  -0.6495191   0.1530931), wk =   0.0468750
        k(   49) = (   0.1250000  -0.6495191   0.3061862), wk =   0.0468750
        k(   50) = (   0.1250000  -0.6495191   0.4592793), wk =   0.0468750
        k(   51) = (   0.1250000  -0.6495191   0.6123724), wk =   0.0468750
        k(   52) = (   0.1250000  -0.6495191  -0.4592793), wk =   0.0468750
        k(   53) = (   0.1250000  -0.6495191  -0.3061862), wk =   0.0468750
        k(   54) = (   0.1250000  -0.6495191  -0.1530931), wk =   0.0468750
        k(   55) = (   0.1250000  -0.6495191   0.0000000), wk =   0.0468750
        k(   56) = (   0.2500000  -0.7216878   0.1020621), wk =   0.0468750
        k(   57) = (   0.2500000  -0.7216878   0.2551552), wk =   0.0468750
        k(   58) = (   0.2500000  -0.7216878   0.4082483), wk =   0.0234375
        k(   59) = (   0.2500000  -0.7216878  -0.3572173), wk =   0.0468750
        k(   60) = (   0.2500000  -0.7216878  -0.2041241), wk =   0.0234375
        k(   61) = (   0.2500000  -0.5773503   0.0510310), wk =   0.0468750
        k(   62) = (   0.2500000  -0.5773503   0.2041241), wk =   0.0234375
        k(   63) = (   0.2500000  -0.5773503   0.5103104), wk =   0.0468750
        k(   64) = (   0.2500000  -0.5773503  -0.5613414), wk =   0.0468750
        k(   65) = (   0.2500000  -0.5773503  -0.4082483), wk =   0.0234375

                       cryst. coord.
        k(    1) = (   0.0000000   0.0000000   0.0000000), wk =   0.0039062
        k(    2) = (   0.0000000   0.0000000   0.1250000), wk =   0.0078125
        k(    3) = (   0.0000000   0.0000000   0.2500000), wk =   0.0078125
        k(    4) = (   0.0000000   0.0000000   0.3750000), wk =   0.0078125
        k(    5) = (   0.0000000   0.0000000  -0.5000000), wk =   0.0039062
        k(    6) = (   0.0000000   0.1250000   0.0000000), wk =   0.0234375
        k(    7) = (   0.0000000   0.1250000   0.1250000), wk =   0.0234375
        k(    8) = (   0.0000000   0.1250000   0.2500000), wk =   0.0234375
        k(    9) = (   0.0000000   0.1250000   0.3750000), wk =   0.0234375
        k(   10) = (   0.0000000   0.1250000  -0.5000000), wk =   0.0234375
        k(   11) = (   0.0000000   0.1250000  -0.3750000), wk =   0.0234375
        k(   12) = (   0.0000000   0.1250000  -0.2500000), wk =   0.0234375
        k(   13) = (   0.0000000   0.1250000  -0.1250000), wk =   0.0234375
        k(   14) = (   0.0000000   0.2500000   0.0000000), wk =   0.0234375
        k(   15) = (   0.0000000   0.2500000   0.1250000), wk =   0.0234375
        k(   16) = (   0.0000000   0.2500000   0.2500000), wk =   0.0234375
        k(   17) = (   0.0000000   0.2500000   0.3750000), wk =   0.0234375
        k(   18) = (   0.0000000   0.2500000  -0.5000000), wk =   0.0234375
        k(   19) = (   0.0000000   0.2500000  -0.3750000), wk =   0.0234375
        k(   20) = (   0.0000000   0.2500000  -0.2500000), wk =   0.0234375
        k(   21) = (   0.0000000   0.2500000  -0.1250000), wk =   0.0234375
        k(   22) = (   0.0000000   0.3750000   0.0000000), wk =   0.0234375
        k(   23) = (   0.0000000   0.3750000   0.1250000), wk =   0.0234375
        k(   24) = (   0.0000000   0.3750000   0.2500000), wk =   0.0234375
        k(   25) = (   0.0000000   0.3750000   0.3750000), wk =   0.0234375
        k(   26) = (   0.0000000   0.3750000  -0.5000000), wk =   0.0234375
        k(   27) = (   0.0000000   0.3750000  -0.3750000), wk =   0.0234375
        k(   28) = (   0.0000000   0.3750000  -0.2500000), wk =   0.0234375
        k(   29) = (   0.0000000   0.3750000  -0.1250000), wk =   0.0234375
        k(   30) = (   0.0000000  -0.5000000   0.0000000), wk =   0.0117188
        k(   31) = (   0.0000000  -0.5000000   0.1250000), wk =   0.0234375
        k(   32) = (   0.0000000  -0.5000000   0.2500000), wk =   0.0234375
        k(   33) = (   0.0000000  -0.5000000   0.3750000), wk =   0.0234375
        k(   34) = (   0.0000000  -0.5000000  -0.5000000), wk =   0.0117188
        k(   35) = (   0.1250000   0.2500000   0.0000000), wk =   0.0468750
        k(   36) = (   0.1250000   0.2500000   0.1250000), wk =   0.0234375
        k(   37) = (   0.1250000   0.2500000   0.3750000), wk =   0.0468750
        k(   38) = (   0.1250000   0.2500000  -0.5000000), wk =   0.0468750
        k(   39) = (   0.1250000   0.2500000  -0.3750000), wk =   0.0234375
        k(   40) = (   0.1250000   0.3750000  -0.0000000), wk =   0.0468750
        k(   41) = (   0.1250000   0.3750000   0.1250000), wk =   0.0468750
        k(   42) = (   0.1250000   0.3750000   0.2500000), wk =   0.0468750
        k(   43) = (   0.1250000   0.3750000   0.3750000), wk =   0.0468750
        k(   44) = (   0.1250000   0.3750000  -0.5000000), wk =   0.0468750
        k(   45) = (   0.1250000   0.3750000  -0.3750000), wk =   0.0468750
        k(   46) = (   0.1250000   0.3750000  -0.2500000), wk =   0.0468750
        k(   47) = (   0.1250000   0.3750000  -0.1250000), wk =   0.0468750
        k(   48) = (   0.1250000  -0.5000000   0.0000000), wk =   0.0468750
        k(   49) = (   0.1250000  -0.5000000   0.1250000), wk =   0.0468750
        k(   50) = (   0.1250000  -0.5000000   0.2500000), wk =   0.0468750
        k(   51) = (   0.1250000  -0.5000000   0.3750000), wk =   0.0468750
        k(   52) = (   0.1250000  -0.5000000  -0.5000000), wk =   0.0468750
        k(   53) = (   0.1250000  -0.5000000  -0.3750000), wk =   0.0468750
        k(   54) = (   0.1250000  -0.5000000  -0.2500000), wk =   0.0468750
        k(   55) = (   0.1250000  -0.5000000  -0.1250000), wk =   0.0468750
        k(   56) = (   0.2500000  -0.5000000   0.0000000), wk =   0.0468750
        k(   57) = (   0.2500000  -0.5000000   0.1250000), wk =   0.0468750
        k(   58) = (   0.2500000  -0.5000000   0.2500000), wk =   0.0234375
        k(   59) = (   0.2500000  -0.5000000  -0.3750000), wk =   0.0468750
        k(   60) = (   0.2500000  -0.5000000  -0.2500000), wk =   0.0234375
        k(   61) = (   0.2500000  -0.3750000   0.0000000), wk =   0.0468750
        k(   62) = (   0.2500000  -0.3750000   0.1250000), wk =   0.0234375
        k(   63) = (   0.2500000  -0.3750000   0.3750000), wk =   0.0468750
        k(   64) = (   0.2500000  -0.3750000  -0.5000000), wk =   0.0468750
        k(   65) = (   0.2500000  -0.3750000  -0.3750000), wk =   0.0234375

     Dense  grid:    17261 G-vectors     FFT dimensions: (  40,  40,  40)

     Smooth grid:     6183 G-vectors     FFT dimensions: (  32,  32,  32)

     Dynamical RAM for                 wfc:       0.00 MB

     Dynamical RAM for     wfc (w. buffer):       0.00 MB

     Dynamical RAM for           str. fact:       0.02 MB

     Dynamical RAM for           local pot:       0.00 MB

     Dynamical RAM for          nlocal pot:       0.03 MB

     Dynamical RAM for                qrad:       1.24 MB

     Dynamical RAM for          rho,v,vnew:       0.21 MB

     Dynamical RAM for           G-vectors:       0.09 MB

     Dynamical RAM for          h,s,v(r/c):       0.00 MB

     Dynamical RAM for          <psi|beta>:       0.00 MB

     Dynamical RAM for                 psi:       0.01 MB

     Dynamical RAM for                hpsi:       0.01 MB

     Dynamical RAM for                spsi:       0.01 MB

     Dynamical RAM for      wfcinit/wfcrot:       0.02 MB

     Dynamical RAM for           addusdens:       4.13 MB

     Estimated static dynamical RAM per process >       1.89 MB

     Estimated max dynamical RAM per process >       6.02 MB

     Estimated total dynamical RAM >      72.23 MB

     The potential is recalculated from file :
     ./out/aiida.save/charge-density

     Starting wfcs are    8 randomized atomic wfcs

     Band Structure Calculation
     Davidson diagonalization with overlap

     Computing kpt #:     1  of    65
     total cpu time spent up to now is        0.5 secs

     Computing kpt #:     2  of    65
     total cpu time spent up to now is        0.5 secs

     Computing kpt #:     3  of    65
     total cpu time spent up to now is        0.5 secs

     Computing kpt #:     4  of    65
     total cpu time spent up to now is        0.5 secs

     Computing kpt #:     5  of    65
     total cpu time spent up to now is        0.5 secs

     Computing kpt #:     6  of    65
     total cpu time spent up to now is        0.5 secs

     Computing kpt #:     7  of    65
     total cpu time spent up to now is        0.6 secs

     Computing kpt #:     8  of    65
     total cpu time spent up to now is        0.6 secs

     Computing kpt #:     9  of    65
     total cpu time spent up to now is        0.6 secs

     Computing kpt #:    10  of    65
     total cpu time spent up to now is        0.6 secs

     Computing kpt #:    11  of    65
     total cpu time spent up to now is        0.6 secs

     Computing kpt #:    12  of    65
     total cpu time spent up to now is        0.6 secs

     Computing kpt #:    13  of    65
     total cpu time spent up to now is        0.6 secs

     Computing kpt #:    14  of    65
     total cpu time spent up to now is        0.6 secs

     Computing kpt #:    15  of    65
     total cpu time spent up to now is        0.6 secs

     Computing kpt #:    16  of    65
     total cpu time spent up to now is        0.6 secs

     Computing kpt #:    17  of    65
     total cpu time spent up to now is        0.6 secs

     Computing kpt #:    18  of    65
     total cpu time spent up to now is        0.6 secs

     Computing kpt #:    19  of    65
     total cpu time spent up to now is        0.6 secs

     Computing kpt #:    20  of    65
     total cpu time spent up to now is        0.6 secs

     Computing kpt #:    21  of    65
     total cpu time spent up to now is        0.6 secs

     Computing kpt #:    22  of    65
     total cpu time spent up to now is        0.7 secs

     Computing kpt #:    23  of    65
     total cpu time spent up to now is        0.7 secs

     Computing kpt #:    24  of    65
     total cpu time spent up to now is        0.7 secs

     Computing kpt #:    25  of    65
     total cpu time spent up to now is        0.7 secs

     Computing kpt #:    26  of    65
     total cpu time spent up to now is        0.7 secs

     Computing kpt #:    27  of    65
     total cpu time spent up to now is        0.7 secs

     Computing kpt #:    28  of    65
     total cpu time spent up to now is        0.7 secs

     Computing kpt #:    29  of    65
     total cpu time spent up to now is        0.7 secs

     Computing kpt #:    30  of    65
     total cpu time spent up to now is        0.7 secs

     Computing kpt #:    31  of    65
     total cpu time spent up to now is        0.7 secs

     Computing kpt #:    32  of    65
     total cpu time spent up to now is        0.7 secs

     Computing kpt #:    33  of    65
     total cpu time spent up to now is        0.7 secs

     Computing kpt #:    34  of    65
     total cpu time spent up to now is        0.7 secs

     Computing kpt #:    35  of    65
     total cpu time spent up to now is        0.7 secs

     Computing kpt #:    36  of    65
     total cpu time spent up to now is        0.8 secs

     Computing kpt #:    37  of    65
     total cpu time spent up to now is        0.8 secs

     Computing kpt #:    38  of    65
     total cpu time spent up to now is        0.8 secs

     Computing kpt #:    39  of    65
     total cpu time spent up to now is        0.8 secs

     Computing kpt #:    40  of    65
     total cpu time spent up to now is        0.8 secs

     Computing kpt #:    41  of    65
     total cpu time spent up to now is        0.8 secs

     Computing kpt #:    42  of    65
     total cpu time spent up to now is        0.8 secs

     Computing kpt #:    43  of    65
     total cpu time spent up to now is        0.8 secs

     Computing kpt #:    44  of    65
     total cpu time spent up to now is        0.8 secs

     Computing kpt #:    45  of    65
     total cpu time spent up to now is        0.8 secs

     Computing kpt #:    46  of    65
     total cpu time spent up to now is        0.8 secs

     Computing kpt #:    47  of    65
     total cpu time spent up to now is        0.8 secs

     Computing kpt #:    48  of    65
     total cpu time spent up to now is        0.8 secs

     Computing kpt #:    49  of    65
     total cpu time spent up to now is        0.8 secs

     Computing kpt #:    50  of    65
     total cpu time spent up to now is        0.8 secs

     Computing kpt #:    51  of    65
     total cpu time spent up to now is        0.9 secs

     Computing kpt #:    52  of    65
     total cpu time spent up to now is        0.9 secs

     Computing kpt #:    53  of    65
     total cpu time spent up to now is        0.9 secs

     Computing kpt #:    54  of    65
     total cpu time spent up to now is        0.9 secs

     Computing kpt #:    55  of    65
     total cpu time spent up to now is        0.9 secs

     Computing kpt #:    56  of    65
     total cpu time spent up to now is        0.9 secs

     Computing kpt #:    57  of    65
     total cpu time spent up to now is        0.9 secs

     Computing kpt #:    58  of    65
     total cpu time spent up to now is        0.9 secs

     Computing kpt #:    59  of    65
     total cpu time spent up to now is        0.9 secs

     Computing kpt #:    60  of    65
     total cpu time spent up to now is        0.9 secs

     Computing kpt #:    61  of    65
     total cpu time spent up to now is        0.9 secs

     Computing kpt #:    62  of    65
     total cpu time spent up to now is        0.9 secs

     Computing kpt #:    63  of    65
     total cpu time spent up to now is        0.9 secs

     Computing kpt #:    64  of    65
     total cpu time spent up to now is        0.9 secs

     Computing kpt #:    65  of    65
     total cpu time spent up to now is        0.9 secs

     ethr =  1.25E-08,  avg # of iterations = 16.7

     total cpu time spent up to now is        0.9 secs

     End of band structure calculation

          k = 0.0000 0.0000 0.0000 (   749 PWs)   bands (ev):

    -5.7989   6.0281   6.0281   6.0283

     occupation numbers 
     1.0000   1.0000   1.0000   1.0000

          k = 0.0000 0.0000 0.1531 (   770 PWs)   bands (ev):

    -5.5984   4.4309   5.7430   5.7430

     occupation numbers 
     1.0000   1.0000   1.0000   1.0000

          k = 0.0000 0.0000 0.3062 (   769 PWs)   bands (ev):

    -5.0137   2.1314   5.2776   5.2776

     occupation numbers 
     1.0000   1.0000   1.0000   1.0000

          k = 0.0000 0.0000 0.4593 (   763 PWs)   bands (ev):

    -4.1384   0.1445   4.9536   4.9536

     occupation numbers 
     1.0000   1.0000   1.0000   1.0000

          k = 0.0000 0.0000-0.6124 (   778 PWs)   bands (ev):

    -3.5179  -0.8554   4.8426   4.8426

     occupation numbers 
     1.0000   1.0000   1.0000   1.0000

          k = 0.0000 0.1443-0.0510 (   770 PWs)   bands (ev):

    -5.5984   4.4308   5.7430   5.7431

     occupation numbers 
     1.0000   1.0000   1.0000   1.0000

          k = 0.0000 0.1443 0.1021 (   769 PWs)   bands (ev):

    -5.5308   4.6730   5.2350   5.2351

     occupation numbers 
     1.0000   1.0000   1.0000   1.0000

          k = 0.0000 0.1443 0.2552 (   768 PWs)   bands (ev):

    -5.0706   2.8144   4.7304   4.7956

     occupation numbers 
     1.0000   1.0000   1.0000   1.0000

          k = 0.0000 0.1443 0.4082 (   775 PWs)   bands (ev):

    -4.2714   0.7891   4.2106   4.4648

     occupation numbers 
     1.0000   1.0000   1.0000   1.0000

          k = 0.0000 0.1443-0.6634 (   763 PWs)   bands (ev):

    -3.4312  -0.6437   3.7724   4.4872

     occupation numbers 
     1.0000   1.0000   1.0000   1.0000

          k = 0.0000 0.1443-0.5103 (   768 PWs)   bands (ev):

    -3.6689  -0.2818   3.5963   4.7779

     occupation numbers 
     1.0000   1.0000   1.0000   1.0000

          k = 0.0000 0.1443-0.3572 (   773 PWs)   bands (ev):

    -4.5717   1.4364   3.7502   5.2616

     occupation numbers 
     1.0000   1.0000   1.0000   1.0000

          k = 0.0000 0.1443-0.2041 (   775 PWs)   bands (ev):

    -5.2682   3.3466   4.4285   5.7362

     occupation numbers 
     1.0000   1.0000   1.0000   1.0000

          k = 0.0000 0.2887-0.1021 (   769 PWs)   bands (ev):

    -5.0137   2.1313   5.2775   5.2776

     occupation numbers 
     1.0000   1.0000   1.0000   1.0000

          k = 0.0000 0.2887 0.0510 (   768 PWs)   bands (ev):

    -5.0705   2.8143   4.7304   4.7957

     occupation numbers 
     1.0000   1.0000   1.0000   1.0000

          k = 0.0000 0.2887 0.2041 (   769 PWs)   bands (ev):

    -4.7361   2.5042   4.1684   4.1685

     occupation numbers 
     1.0000   1.0000   1.0000   1.0000

          k = 0.0000 0.2887 0.3572 (   766 PWs)   bands (ev):

    -4.0391   1.1051   3.4005   3.8545

     occupation numbers 
     1.0000   1.0000   1.0000   1.0000

          k = 0.0000 0.2887-0.7144 (   763 PWs)   bands (ev):

    -3.1332  -0.3058   2.5511   3.8566

     occupation numbers 
     1.0000   1.0000   1.0000   1.0000

          k = 0.0000 0.2887-0.5613 (   767 PWs)   bands (ev):

    -2.9354  -0.5565   2.1026   4.1691

     occupation numbers 
     1.0000   1.0000   1.0000   1.0000

          k = 0.0000 0.2887-0.4082 (   762 PWs)   bands (ev):

    -3.7937   0.5795   2.3432   4.7177

     occupation numbers 
     1.0000   1.0000   1.0000   1.0000

          k = 0.0000 0.2887-0.2552 (   773 PWs)   bands (ev):

    -4.5717   1.4364   3.7502   5.2616

     occupation numbers 
     1.0000   1.0000   1.0000   1.0000

          k = 0.0000 0.4330-0.1531 (   763 PWs)   bands (ev):

    -4.1384   0.1444   4.9536   4.9537

     occupation numbers 
     1.0000   1.0000   1.0000   1.0000

          k = 0.0000 0.4330-0.0000 (   775 PWs)   bands (ev):

    -4.2714   0.7890   4.2107   4.4648

     occupation numbers 
     1.0000   1.0000   1.0000   1.0000

          k = 0.0000 0.4330 0.1531 (   766 PWs)   bands (ev):

    -4.0391   1.1050   3.4006   3.8545

     occupation numbers 
     1.0000   1.0000   1.0000   1.0000

          k = 0.0000 0.4330 0.3062 (   765 PWs)   bands (ev):

    -3.4469   0.3080   3.4623   3.4623

     occupation numbers 
     1.0000   1.0000   1.0000   1.0000

          k = 0.0000 0.4330-0.7655 (   762 PWs)   bands (ev):

    -2.5668  -0.7595   2.6544   3.3869

     occupation numbers 
     1.0000   1.0000   1.0000   1.0000

          k = 0.0000 0.4330-0.6124 (   762 PWs)   bands (ev):

    -2.1423  -1.1456   1.8100   3.6399

     occupation numbers 
     1.0000   1.0000   1.0000   1.0000

          k = 0.0000 0.4330-0.4593 (   767 PWs)   bands (ev):

    -2.9354  -0.5566   2.1027   4.1691

     occupation numbers 
     1.0000   1.0000   1.0000   1.0000

          k = 0.0000 0.4330-0.3062 (   768 PWs)   bands (ev):

    -3.6689  -0.2819   3.5964   4.7779

     occupation numbers 
     1.0000   1.0000   1.0000   1.0000

          k = 0.0000-0.5774 0.2041 (   778 PWs)   bands (ev):

    -3.5179  -0.8555   4.8426   4.8427

     occupation numbers 
     1.0000   1.0000   1.0000   1.0000

          k = 0.0000-0.5774 0.3572 (   763 PWs)   bands (ev):

    -3.4311  -0.6438   3.7725   4.4872

     occupation numbers 
     1.0000   1.0000   1.0000   1.0000

          k = 0.0000-0.5774 0.5103 (   763 PWs)   bands (ev):

    -3.1331  -0.3059   2.5512   3.8566

     occupation numbers 
     1.0000   1.0000   1.0000   1.0000

          k = 0.0000-0.5774 0.6634 (   762 PWs)   bands (ev):

    -2.5668  -0.7596   2.6544   3.3869

     occupation numbers 
     1.0000   1.0000   1.0000   1.0000

          k = 0.0000-0.5774-0.4082 (   774 PWs)   bands (ev):

    -1.7282  -1.7281   3.2201   3.2202

     occupation numbers 
     1.0000   1.0000   1.0000   1.0000

          k = 0.1250 0.2165-0.1531 (   768 PWs)   bands (ev):

    -5.0706   2.8143   4.7304   4.7956

     occupation numbers 
     1.0000   1.0000   1.0000   1.0000

          k = 0.1250 0.2165-0.0000 (   775 PWs)   bands (ev):

    -5.2682   3.3465   4.4285   5.7363

     occupation numbers 
     1.0000   1.0000   1.0000   1.0000

          k = 0.1250 0.2165 0.3062 (   765 PWs)   bands (ev):

    -4.4935   1.7521   3.3624   4.6193

     occupation numbers 
     1.0000   1.0000   1.0000   1.0000

          k = 0.1250 0.2165-0.7655 (   768 PWs)   bands (ev):

    -3.6233   0.2300   2.7582   4.1296

     occupation numbers 
     1.0000   1.0000   1.0000   1.0000

          k = 0.1250 0.2165-0.6124 (   764 PWs)   bands (ev):

    -2.9879  -0.6915   2.6272   3.9056

     occupation numbers 
     1.0000   1.0000   1.0000   1.0000

          k = 0.1250 0.3608-0.2041 (   775 PWs)   bands (ev):

    -4.2714   0.7891   4.2106   4.4648

     occupation numbers 
     1.0000   1.0000   1.0000   1.0000

          k = 0.1250 0.3608-0.0510 (   773 PWs)   bands (ev):

    -4.5717   1.4363   3.7502   5.2616

     occupation numbers 
     1.0000   1.0000   1.0000   1.0000

          k = 0.1250 0.3608 0.1021 (   765 PWs)   bands (ev):

    -4.4935   1.7520   3.3625   4.6193

     occupation numbers 
     1.0000   1.0000   1.0000   1.0000

          k = 0.1250 0.3608 0.2552 (   766 PWs)   bands (ev):

    -4.0391   1.1050   3.4005   3.8545

     occupation numbers 
     1.0000   1.0000   1.0000   1.0000

          k = 0.1250 0.3608-0.8165 (   763 PWs)   bands (ev):

    -3.2532   0.0925   2.7251   3.3182

     occupation numbers 
     1.0000   1.0000   1.0000   1.0000

          k = 0.1250 0.3608-0.6634 (   755 PWs)   bands (ev):

    -2.3984  -0.8572   2.0433   3.1218

     occupation numbers 
     1.0000   1.0000   1.0000   1.0000

          k = 0.1250 0.3608-0.5103 (   755 PWs)   bands (ev):

    -2.7424  -0.4992   1.8806   3.4896

     occupation numbers 
     1.0000   1.0000   1.0000   1.0000

          k = 0.1250 0.3608-0.3572 (   768 PWs)   bands (ev):

    -3.6232   0.2299   2.7582   4.1296

     occupation numbers 
     1.0000   1.0000   1.0000   1.0000

          k = 0.1250-0.6495 0.1531 (   763 PWs)   bands (ev):

    -3.4311  -0.6438   3.7724   4.4873

     occupation numbers 
     1.0000   1.0000   1.0000   1.0000

          k = 0.1250-0.6495 0.3062 (   768 PWs)   bands (ev):

    -3.6689  -0.2819   3.5964   4.7780

     occupation numbers 
     1.0000   1.0000   1.0000   1.0000

          k = 0.1250-0.6495 0.4593 (   768 PWs)   bands (ev):

    -3.6232   0.2299   2.7582   4.1297

     occupation numbers 
     1.0000   1.0000   1.0000   1.0000

          k = 0.1250-0.6495 0.6124 (   763 PWs)   bands (ev):

    -3.2532   0.0924   2.7252   3.3183

     occupation numbers 
     1.0000   1.0000   1.0000   1.0000

          k = 0.1250-0.6495-0.4593 (   762 PWs)   bands (ev):

    -2.5668  -0.7596   2.6543   3.3870

     occupation numbers 
     1.0000   1.0000   1.0000   1.0000

          k = 0.1250-0.6495-0.3062 (   760 PWs)   bands (ev):

    -1.6540  -1.6539   2.6734   2.6734

     occupation numbers 
     1.0000   1.0000   1.0000   1.0000

          k = 0.1250-0.6495-0.1531 (   755 PWs)   bands (ev):

    -2.3984  -0.8573   2.0434   3.1218

     occupation numbers 
     1.0000   1.0000   1.0000   1.0000

          k = 0.1250-0.6495 0.0000 (   764 PWs)   bands (ev):

    -2.9878  -0.6917   2.6273   3.9056

     occupation numbers 
     1.0000   1.0000   1.0000   1.0000

          k = 0.2500-0.7217 0.1021 (   763 PWs)   bands (ev):

    -3.1331  -0.3059   2.5511   3.8566

     occupation numbers 
     1.0000   1.0000   1.0000   1.0000

          k = 0.2500-0.7217 0.2552 (   768 PWs)   bands (ev):

    -3.6232   0.2299   2.7582   4.1297

     occupation numbers 
     1.0000   1.0000   1.0000   1.0000

          k = 0.2500-0.7217 0.4082 (   762 PWs)   bands (ev):

    -3.7937   0.5794   2.3432   4.7177

     occupation numbers 
     1.0000   1.0000   1.0000   1.0000

          k = 0.2500-0.7217-0.3572 (   755 PWs)   bands (ev):

    -2.3984  -0.8573   2.0434   3.1218

     occupation numbers 
     1.0000   1.0000   1.0000   1.0000

          k = 0.2500-0.7217-0.2041 (   744 PWs)   bands (ev):

    -1.5727  -1.5726   2.2503   2.2503

     occupation numbers 
     1.0000   1.0000   1.0000   1.0000

          k = 0.2500-0.5774 0.0510 (   767 PWs)   bands (ev):

    -2.9354  -0.5566   2.1027   4.1691

     occupation numbers 
     1.0000   1.0000   1.0000   1.0000

          k = 0.2500-0.5774 0.2041 (   764 PWs)   bands (ev):

    -2.9878  -0.6917   2.6272   3.9057

     occupation numbers 
     1.0000   1.0000   1.0000   1.0000

          k = 0.2500-0.5774 0.5103 (   755 PWs)   bands (ev):

    -2.7423  -0.4993   1.8806   3.4896

     occupation numbers 
     1.0000   1.0000   1.0000   1.0000

          k = 0.2500-0.5774-0.5613 (   755 PWs)   bands (ev):

    -2.3983  -0.8573   2.0433   3.1218

     occupation numbers 
     1.0000   1.0000   1.0000   1.0000

          k = 0.2500-0.5774-0.4082 (   762 PWs)   bands (ev):

    -2.1422  -1.1457   1.8100   3.6400

     occupation numbers 
     1.0000   1.0000   1.0000   1.0000

     highest occupied level (ev):     6.0283

     Writing all to output data dir ./out/aiida.save/ :
     XML data file, pseudopotentials, collected wavefunctions
 
     init_run     :      0.03s CPU      0.06s WALL (       1 calls)
     electrons    :      0.43s CPU      0.45s WALL (       1 calls)

     Called by init_run:
     wfcinit      :      0.00s CPU      0.00s WALL (       1 calls)
     wfcinit:atom :      0.00s CPU      0.00s WALL (      65 calls)
     wfcinit:wfcr :      0.04s CPU      0.05s WALL (      65 calls)
     potinit      :      0.00s CPU      0.01s WALL (       1 calls)
     hinit0       :      0.02s CPU      0.05s WALL (       1 calls)

     Called by electrons:
     c_bands      :      0.43s CPU      0.45s WALL (       1 calls)
     v_of_rho     :      0.00s CPU      0.00s WALL (       1 calls)
     v_h          :      0.00s CPU      0.00s WALL (       1 calls)
     v_xc         :      0.00s CPU      0.00s WALL (       1 calls)
     newd         :      0.00s CPU      0.00s WALL (       1 calls)

     Called by c_bands:
     init_us_2    :      0.00s CPU      0.00s WALL (      65 calls)
     init_us_2:cp :      0.00s CPU      0.00s WALL (      65 calls)
     cegterg      :      0.37s CPU      0.39s WALL (      67 calls)

     Called by sum_band:

     Called by *egterg:
     cdiaghg      :      0.03s CPU      0.03s WALL (    1150 calls)
     cegterg:over :      0.02s CPU      0.02s WALL (    1085 calls)
     cegterg:upda :      0.00s CPU      0.00s WALL (    1085 calls)
     cegterg:last :      0.00s CPU      0.00s WALL (     997 calls)
     h_psi        :      0.34s CPU      0.36s WALL (    1217 calls)
     s_psi        :      0.01s CPU      0.01s WALL (    1217 calls)
     g_psi        :      0.00s CPU      0.00s WALL (    1085 calls)

     Called by h_psi:
     h_psi:calbec :      0.02s CPU      0.02s WALL (    1217 calls)
     vloc_psi     :      0.31s CPU      0.33s WALL (    1217 calls)
     add_vuspsi   :      0.01s CPU      0.01s WALL (    1217 calls)

     General routines
     calbec       :      0.02s CPU      0.02s WALL (    1217 calls)
     fft          :      0.00s CPU      0.00s WALL (      13 calls)
     ffts         :      0.00s CPU      0.00s WALL (       1 calls)
     fftw         :      0.29s CPU      0.30s WALL (    9070 calls)
     interpolate  :      0.00s CPU      0.00s WALL (       1 calls)
     davcio       :      0.00s CPU      0.00s WALL (     130 calls)
 
     Parallel routines
 
     PWSCF        :      0.53s CPU      1.05s WALL

 
   This run was terminated on:   1:14:24   3Apr2025            

=------------------------------------------------------------------------------=
   JOB DONE.
=------------------------------------------------------------------------------=
