 
             +---------------------------------------------------+
             |                                                   |
             |                   WANNIER90                       |
             |                                                   |
             +---------------------------------------------------+
             |                                                   |
             |        Welcome to the Maximally-Localized         |
             |        Generalized Wannier Functions code         |
             |            http://www.wannier.org                 |
             |                                                   |
             |                                                   |
             |  Wannier90 Developer Group:                       |
             |    Giovanni Pizzi    (EPFL)                       |
             |    Valerio Vitale    (Cambridge)                  |
             |    David Vanderbilt  (Rutgers University)         |
             |    Nicola Marzari    (EPFL)                       |
             |    Ivo Souza         (Universidad del Pais Vasco) |
             |    Arash A. Mostofi  (Imperial College London)    |
             |    Jonathan R. Yates (University of Oxford)       |
             |                                                   |
             |  For the full list of Wannier90 3.x authors,      |
             |  please check the code documentation and the      |
             |  README on the GitHub page of the code            |
             |                                                   |
             |                                                   |
             |  Please cite                                      |
             |                                                   |
             |  [ref] "Wannier90 as a community code:            |
             |        new features and applications",            |
             |        G. Pizzi et al., J. Phys. Cond. Matt. 32,  |
             |        165902 (2020).                             |
             |        http://doi.org/10.1088/1361-648X/ab51ff    |
             |                                                   |
             |  in any publications arising from the use of      |
             |  this code. For the method please cite            |
             |                                                   |
             |  [ref] "Maximally Localized Generalised Wannier   |
             |         Functions for Composite Energy Bands"     |
             |         N. Marzari and D. Vanderbilt              |
             |         Phys. Rev. B 56 12847 (1997)              |
             |                                                   |
             |  [ref] "Maximally Localized Wannier Functions     |
             |         for Entangled Energy Bands"               |
             |         I. Souza, N. Marzari and D. Vanderbilt    |
             |         Phys. Rev. B 65 035109 (2001)             |
             |                                                   |
             |                                                   |
             | Copyright (c) 1996-2020                           |
             |        The Wannier90 Developer Group and          |
             |        individual contributors                    |
             |                                                   |
             |      Release: 3.1.0        5th March    2020      |
             |                                                   |
             | This program is free software; you can            |
             | redistribute it and/or modify it under the terms  |
             | of the GNU General Public License as published by |
             | the Free Software Foundation; either version 2 of |
             | the License, or (at your option) any later version|
             |                                                   |
             | This program is distributed in the hope that it   |
             | will be useful, but WITHOUT ANY WARRANTY; without |
             | even the implied warranty of MERCHANTABILITY or   |
             | FITNESS FOR A PARTICULAR PURPOSE. See the GNU     |
             | General Public License for more details.          |
             |                                                   |
             | You should have received a copy of the GNU General|
             | Public License along with this program; if not,   |
             | write to the Free Software Foundation, Inc.,      |
             | 675 Mass Ave, Cambridge, MA 02139, USA.           |
             |                                                   |
             +---------------------------------------------------+
             |    Execution started on 19Apr2025 at 07:25:26     |
             +---------------------------------------------------+
 
 ******************************************************************************
 * -> Using CODATA 2006 constant values                                       *
 *    (http://physics.nist.gov/cuu/Constants/index.html)                      *
 * -> Using Bohr value from CODATA                                            *
 ******************************************************************************
 

 Running in serial (with serial executable)
 
                                    ------
                                    SYSTEM
                                    ------
 
                              Lattice Vectors (Ang)
                    a_1     3.866975   0.000000   0.000000
                    a_2     1.933487   3.348898   0.000000
                    a_3     1.933487   1.116299   3.157372
 
                   Unit Cell Volume:      40.88829  (Ang^3)
 
                        Reciprocal-Space Vectors (Ang^-1)
                    b_1     1.624832  -0.938097  -0.663335
                    b_2     0.000000   1.876195  -0.663335
                    b_3     0.000000   0.000000   1.990005
  
 *----------------------------------------------------------------------------*
 |   Site       Fractional Coordinate          Cartesian Coordinate (Ang)     |
 +----------------------------------------------------------------------------+
 | Si   1   0.75000   0.75000   0.75000   |    5.80046   3.34890   2.36803    |
 | Si   2   0.50000   0.50000   0.50000   |    3.86697   2.23260   1.57869    |
 *----------------------------------------------------------------------------*
                                ------------
                                K-POINT GRID
                                ------------
  
             Grid size =  8 x  8 x  8      Total points =  512
  
  
 *---------------------------------- MAIN ------------------------------------*
 |  Number of Wannier Functions               :                 8             |
 |  Number of Objective Wannier Functions     :                 8             |
 |  Number of input Bloch states              :                16             |
 |  Output verbosity (1=low, 5=high)          :                 1             |
 |  Timing Level (1=low, 5=high)              :                 1             |
 |  Optimisation (0=memory, 3=speed)          :                 3             |
 |  Length Unit                               :               Ang             |
 |  Post-processing setup (write *.nnkp)      :                 F             |
 |  Using Gamma-only branch of algorithms     :                 F             |
 *----------------------------------------------------------------------------*
 *------------------------------- WANNIERISE ---------------------------------*
 |  Total number of iterations                :               100             |
 |  Number of CG steps before reset           :                 5             |
 |  Trial step length for line search         :             2.000             |
 |  Convergence tolerence                     :         0.100E-09             |
 |  Convergence window                        :                -1             |
 |  Iterations between writing output         :                 1             |
 |  Iterations between backing up to disk     :               100             |
 |  Write r^2_nm to file                      :                 F             |
 |  Write xyz WF centres to file              :                 F             |
 |  Write on-site energies <0n|H|0n> to file  :                 F             |
 |  Use guiding centre to control phases      :                 F             |
 |  Use phases for initial projections        :                 F             |
 *----------------------------------------------------------------------------*
 *------------------------------- DISENTANGLE --------------------------------*
 |  Using band disentanglement                :                 T             |
 |  Total number of iterations                :               200             |
 |  Mixing ratio                              :             0.500             |
 |  Convergence tolerence                     :         1.000E-10             |
 |  Convergence window                        :                 3             |
 *----------------------------------------------------------------------------*
 Time to read parameters        0.049 (sec)

 *---------------------------------- K-MESH ----------------------------------*
 +----------------------------------------------------------------------------+
 |                    Distance to Nearest-Neighbour Shells                    |
 |                    ------------------------------------                    |
 |          Shell             Distance (Ang^-1)          Multiplicity         |
 |          -----             -----------------          ------------         |
 |             1                   0.248751                      8            |
 |             2                   0.287232                      6            |
 |             3                   0.406208                     12            |
 |             4                   0.476321                     24            |
 |             5                   0.497501                      8            |
 |             6                   0.574465                      6            |
 |             7                   0.626009                     24            |
 |             8                   0.642271                     24            |
 |             9                   0.703573                     24            |
 |            10                   0.746252                     32            |
 |            11                   0.812416                     12            |
 |            12                   0.849645                     48            |
 |            13                   0.861697                     30            |
 |            14                   0.908309                     24            |
 |            15                   0.941755                     24            |
 |            16                   0.952642                     24            |
 |            17                   0.995003                      8            |
 |            18                   1.025625                     48            |
 |            19                   1.035631                     24            |
 |            20                   1.074726                     48            |
 |            21                   1.103137                     72            |
 |            22                   1.148930                      6            |
 |            23                   1.175550                     24            |
 |            24                   1.184290                     48            |
 |            25                   1.218624                     36            |
 |            26                   1.243753                     56            |
 |            27                   1.252017                     24            |
 |            28                   1.284543                     24            |
 |            29                   1.308406                     72            |
 |            30                   1.316265                     48            |
 |            31                   1.347240                     24            |
 |            32                   1.370012                     48            |
 |            33                   1.407146                     24            |
 |            34                   1.428964                     72            |
 |            35                   1.436162                     30            |
 |            36                   1.464604                     72            |
 +----------------------------------------------------------------------------+
 | The b-vectors are chosen automatically                                     |
 | The following shells are used:   1                                         |
 +----------------------------------------------------------------------------+
 |                        Shell   # Nearest-Neighbours                        |
 |                        -----   --------------------                        |
 |                          1               8                                 |
 +----------------------------------------------------------------------------+
 | Completeness relation is fully satisfied [Eq. (B1), PRB 56, 12847 (1997)]  |
 +----------------------------------------------------------------------------+
 |                  b_k Vectors (Ang^-1) and Weights (Ang^2)                  |
 |                  ----------------------------------------                  |
 |            No.         b_k(x)      b_k(y)      b_k(z)        w_b           |
 |            ---        --------------------------------     --------        |
 |             1         0.000000    0.000000    0.248751     6.060422        |
 |             2         0.000000    0.234524   -0.082917     6.060422        |
 |             3         0.203104   -0.117262   -0.082917     6.060422        |
 |             4         0.203104    0.117262    0.082917     6.060422        |
 |             5         0.000000    0.000000   -0.248751     6.060422        |
 |             6         0.000000   -0.234524    0.082917     6.060422        |
 |             7        -0.203104    0.117262    0.082917     6.060422        |
 |             8        -0.203104   -0.117262   -0.082917     6.060422        |
 +----------------------------------------------------------------------------+
 |                           b_k Directions (Ang^-1)                          |
 |                           -----------------------                          |
 |            No.           x           y           z                         |
 |            ---        --------------------------------                     |
 |             1         0.000000    0.000000    0.248751                     |
 |             2         0.000000    0.234524   -0.082917                     |
 |             3         0.203104   -0.117262   -0.082917                     |
 |             4         0.203104    0.117262    0.082917                     |
 +----------------------------------------------------------------------------+
  
 Time to get kmesh              0.211 (sec)
 *============================================================================*
 |                              MEMORY ESTIMATE                               |
 |         Maximum RAM allocated during each phase of the calculation         |
 *============================================================================*
 |                        Disentanglement           22.92 Mb                  |
 |                            Wannierise:           12.52 Mb                  |
 |                          plot_wannier:           12.52 Mb                  |
 *----------------------------------------------------------------------------*
  
 Starting a new Wannier90 calculation ...


 Reading overlaps from aiida.mmn    :  Created on 19Apr2025 at  7:25: 1

 Reading projections from aiida.amn :  Created on 19Apr2025 at  7:24:56

 Time to read overlaps          1.085 (sec)

 *------------------------------- DISENTANGLE --------------------------------*
 +----------------------------------------------------------------------------+
 |                              Energy  Windows                               |
 |                              ---------------                               |
 |                   Outer:   -5.79895  to   28.79899  (eV)                   |
 |                   No frozen states were specified                          |
 +----------------------------------------------------------------------------+
   Number of target bands to extract:    8

                   Unitarised projection of Wannier functions                  
                   ------------------------------------------                  
   A_mn = <psi_m|g_n> --> S = A.A^+ --> U = S^-1/2.A
   In dis_project... done
   No inner window (linner = F)

                   Extraction of optimally-connected subspace                  
                   ------------------------------------------                  
 +---------------------------------------------------------------------+<-- DIS
 |  Iter     Omega_I(i-1)      Omega_I(i)      Delta (frac.)    Time   |<-- DIS
 +---------------------------------------------------------------------+<-- DIS
       1      12.91773252      11.10298508       1.634E-01      0.00    <-- DIS
       2      11.94453769      10.64113077       1.225E-01      0.04    <-- DIS
       3      11.25233473      10.34287758       8.793E-02      0.09    <-- DIS
       4      10.76857569      10.12643580       6.341E-02      0.13    <-- DIS
       5      10.42566410       9.96220546       4.652E-02      0.17    <-- DIS
       6      10.17691585       9.83333776       3.494E-02      0.21    <-- DIS
       7       9.99147615       9.72935539       2.694E-02      0.26    <-- DIS
       8       9.84919522       9.64344455       2.134E-02      0.30    <-- DIS
       9       9.73690222       9.57101844       1.733E-02      0.34    <-- DIS
      10       9.64591333       9.50889685       1.441E-02      0.39    <-- DIS
      11       9.57042283       9.45481659       1.223E-02      0.43    <-- DIS
      12       9.50648049       9.40712923       1.056E-02      0.47    <-- DIS
      13       9.45134452       9.36460875       9.262E-03      0.51    <-- DIS
      14       9.40307129       9.32632613       8.229E-03      0.56    <-- DIS
      15       9.36025324       9.29156540       7.392E-03      0.60    <-- DIS
      16       9.32184954       9.25976643       6.705E-03      0.64    <-- DIS
      17       9.28707526       9.23048501       6.131E-03      0.68    <-- DIS
      18       9.25532751       9.20336458       5.646E-03      0.73    <-- DIS
      19       9.22613551       9.17811579       5.232E-03      0.77    <-- DIS
      20       9.19912614       9.15450150       4.875E-03      0.81    <-- DIS
      21       9.17399968       9.13232563       4.563E-03      0.85    <-- DIS
      22       9.15051254       9.11142469       4.290E-03      0.90    <-- DIS
      23       9.12846463       9.09166138       4.048E-03      0.94    <-- DIS
      24       9.10769004       9.07291955       3.832E-03      0.98    <-- DIS
      25       9.08805000       9.05510032       3.639E-03      1.02    <-- DIS
      26       9.06942756       9.03811900       3.464E-03      1.07    <-- DIS
      27       9.05172341       9.02190260       3.305E-03      1.11    <-- DIS
      28       9.03485268       9.00638788       3.161E-03      1.15    <-- DIS
      29       9.01874238       8.99151976       3.028E-03      1.19    <-- DIS
      30       9.00332938       8.97724999       2.905E-03      1.24    <-- DIS
      31       8.98855872       8.96353612       2.792E-03      1.28    <-- DIS
      32       8.97438235       8.95034058       2.686E-03      1.32    <-- DIS
      33       8.96075800       8.93763001       2.588E-03      1.36    <-- DIS
      34       8.94764832       8.92537462       2.496E-03      1.41    <-- DIS
      35       8.93502012       8.91354768       2.409E-03      1.45    <-- DIS
      36       8.92284382       8.90212513       2.327E-03      1.49    <-- DIS
      37       8.91109287       8.89108521       2.250E-03      1.53    <-- DIS
      38       8.89974337       8.88040813       2.177E-03      1.58    <-- DIS
      39       8.88877373       8.87007588       2.108E-03      1.62    <-- DIS
      40       8.87816432       8.86007196       2.042E-03      1.66    <-- DIS
      41       8.86789725       8.85038120       1.979E-03      1.71    <-- DIS
      42       8.85795615       8.84098964       1.919E-03      1.75    <-- DIS
      43       8.84832599       8.83188435       1.862E-03      1.79    <-- DIS
      44       8.83899291       8.82305333       1.807E-03      1.83    <-- DIS
      45       8.82994409       8.81448544       1.754E-03      1.88    <-- DIS
      46       8.82116764       8.80617025       1.703E-03      1.92    <-- DIS
      47       8.81265248       8.79809801       1.654E-03      1.96    <-- DIS
      48       8.80438828       8.79025958       1.607E-03      2.00    <-- DIS
      49       8.79636538       8.78264636       1.562E-03      2.05    <-- DIS
      50       8.78857470       8.77525023       1.518E-03      2.09    <-- DIS
      51       8.78100771       8.76806354       1.476E-03      2.13    <-- DIS
      52       8.77365636       8.76107904       1.436E-03      2.17    <-- DIS
      53       8.76651306       8.75428985       1.396E-03      2.22    <-- DIS
      54       8.75957061       8.74768943       1.358E-03      2.26    <-- DIS
      55       8.75282218       8.74127157       1.321E-03      2.30    <-- DIS
      56       8.74626130       8.73503035       1.286E-03      2.34    <-- DIS
      57       8.73988179       8.72896011       1.251E-03      2.39    <-- DIS
      58       8.73367778       8.72305546       1.218E-03      2.43    <-- DIS
      59       8.72764366       8.71731121       1.185E-03      2.47    <-- DIS
      60       8.72177406       8.71172243       1.154E-03      2.51    <-- DIS
      61       8.71606386       8.70628437       1.123E-03      2.56    <-- DIS
      62       8.71050813       8.70099246       1.094E-03      2.60    <-- DIS
      63       8.70510217       8.69584234       1.065E-03      2.64    <-- DIS
      64       8.69984146       8.69082979       1.037E-03      2.68    <-- DIS
      65       8.69472163       8.68595075       1.010E-03      2.73    <-- DIS
      66       8.68973853       8.68120134       9.834E-04      2.77    <-- DIS
      67       8.68488812       8.67657779       9.578E-04      2.81    <-- DIS
      68       8.68016653       8.67207648       9.329E-04      2.85    <-- DIS
      69       8.67557003       8.66769390       9.087E-04      2.90    <-- DIS
      70       8.67109501       8.66342669       8.851E-04      2.94    <-- DIS
      71       8.66673801       8.65927157       8.622E-04      2.98    <-- DIS
      72       8.66249566       8.65522540       8.400E-04      3.02    <-- DIS
      73       8.65836474       8.65128512       8.183E-04      3.07    <-- DIS
      74       8.65434209       8.64744780       7.973E-04      3.11    <-- DIS
      75       8.65042471       8.64371057       7.768E-04      3.15    <-- DIS
      76       8.64660965       8.64007067       7.568E-04      3.19    <-- DIS
      77       8.64289409       8.63652544       7.374E-04      3.23    <-- DIS
      78       8.63927528       8.63307227       7.185E-04      3.28    <-- DIS
      79       8.63575057       8.62970866       7.001E-04      3.32    <-- DIS
      80       8.63231737       8.62643217       6.822E-04      3.36    <-- DIS
      81       8.62897320       8.62324045       6.648E-04      3.40    <-- DIS
      82       8.62571563       8.62013121       6.478E-04      3.45    <-- DIS
      83       8.62254232       8.61710223       6.313E-04      3.49    <-- DIS
      84       8.61945101       8.61415134       6.152E-04      3.53    <-- DIS
      85       8.61643948       8.61127648       5.996E-04      3.57    <-- DIS
      86       8.61350559       8.60847559       5.843E-04      3.62    <-- DIS
      87       8.61064726       8.60574673       5.694E-04      3.66    <-- DIS
      88       8.60786249       8.60308797       5.550E-04      3.70    <-- DIS
      89       8.60514931       8.60049745       5.409E-04      3.74    <-- DIS
      90       8.60250583       8.59797338       5.272E-04      3.79    <-- DIS
      91       8.59993019       8.59551400       5.138E-04      3.83    <-- DIS
      92       8.59742060       8.59311760       5.007E-04      3.87    <-- DIS
      93       8.59497533       8.59078254       4.881E-04      3.91    <-- DIS
      94       8.59259267       8.58850719       4.757E-04      3.96    <-- DIS
      95       8.59027099       8.58629001       4.636E-04      4.00    <-- DIS
      96       8.58800869       8.58412947       4.519E-04      4.04    <-- DIS
      97       8.58580421       8.58202409       4.405E-04      4.08    <-- DIS
      98       8.58365603       8.57997243       4.293E-04      4.12    <-- DIS
      99       8.58156270       8.57797310       4.185E-04      4.17    <-- DIS
     100       8.57952278       8.57602474       4.079E-04      4.21    <-- DIS
     101       8.57753489       8.57412602       3.976E-04      4.25    <-- DIS
     102       8.57559767       8.57227566       3.875E-04      4.29    <-- DIS
     103       8.57370980       8.57047240       3.777E-04      4.34    <-- DIS
     104       8.57187002       8.56871504       3.682E-04      4.38    <-- DIS
     105       8.57007707       8.56700238       3.589E-04      4.42    <-- DIS
     106       8.56832974       8.56533328       3.498E-04      4.46    <-- DIS
     107       8.56662687       8.56370660       3.410E-04      4.51    <-- DIS
     108       8.56496729       8.56212126       3.324E-04      4.55    <-- DIS
     109       8.56334990       8.56057620       3.240E-04      4.59    <-- DIS
     110       8.56177361       8.55907038       3.158E-04      4.63    <-- DIS
     111       8.56023737       8.55760279       3.079E-04      4.67    <-- DIS
     112       8.55874014       8.55617246       3.001E-04      4.72    <-- DIS
     113       8.55728092       8.55477842       2.925E-04      4.76    <-- DIS
     114       8.55585875       8.55341976       2.851E-04      4.80    <-- DIS
     115       8.55447267       8.55209556       2.780E-04      4.84    <-- DIS
     116       8.55312175       8.55080494       2.709E-04      4.89    <-- DIS
     117       8.55180510       8.54954705       2.641E-04      4.93    <-- DIS
     118       8.55052184       8.54832105       2.575E-04      4.97    <-- DIS
     119       8.54927112       8.54712613       2.510E-04      5.01    <-- DIS
     120       8.54805211       8.54596149       2.446E-04      5.06    <-- DIS
     121       8.54686400       8.54482636       2.385E-04      5.10    <-- DIS
     122       8.54570600       8.54371999       2.325E-04      5.14    <-- DIS
     123       8.54457734       8.54264166       2.266E-04      5.18    <-- DIS
     124       8.54347728       8.54159063       2.209E-04      5.22    <-- DIS
     125       8.54240508       8.54056623       2.153E-04      5.27    <-- DIS
     126       8.54136005       8.53956777       2.099E-04      5.31    <-- DIS
     127       8.54034149       8.53859460       2.046E-04      5.35    <-- DIS
     128       8.53934872       8.53764607       1.994E-04      5.39    <-- DIS
     129       8.53838109       8.53672156       1.944E-04      5.44    <-- DIS
     130       8.53743796       8.53582045       1.895E-04      5.48    <-- DIS
     131       8.53651871       8.53494215       1.847E-04      5.52    <-- DIS
     132       8.53562274       8.53408609       1.801E-04      5.56    <-- DIS
     133       8.53474945       8.53325170       1.755E-04      5.60    <-- DIS
     134       8.53389826       8.53243843       1.711E-04      5.65    <-- DIS
     135       8.53306863       8.53164575       1.668E-04      5.69    <-- DIS
     136       8.53225999       8.53087313       1.626E-04      5.73    <-- DIS
     137       8.53147182       8.53012007       1.585E-04      5.77    <-- DIS
     138       8.53070361       8.52938606       1.545E-04      5.82    <-- DIS
     139       8.52995483       8.52867064       1.506E-04      5.86    <-- DIS
     140       8.52922501       8.52797332       1.468E-04      5.90    <-- DIS
     141       8.52851366       8.52729365       1.431E-04      5.94    <-- DIS
     142       8.52782032       8.52663119       1.395E-04      5.98    <-- DIS
     143       8.52714452       8.52598549       1.359E-04      6.03    <-- DIS
     144       8.52648583       8.52535613       1.325E-04      6.07    <-- DIS
     145       8.52584381       8.52474270       1.292E-04      6.11    <-- DIS
     146       8.52521804       8.52414481       1.259E-04      6.15    <-- DIS
     147       8.52460811       8.52356204       1.227E-04      6.20    <-- DIS
     148       8.52401362       8.52299403       1.196E-04      6.24    <-- DIS
     149       8.52343417       8.52244039       1.166E-04      6.28    <-- DIS
     150       8.52286940       8.52190077       1.137E-04      6.32    <-- DIS
     151       8.52231892       8.52137481       1.108E-04      6.36    <-- DIS
     152       8.52178237       8.52086217       1.080E-04      6.41    <-- DIS
     153       8.52125941       8.52036250       1.053E-04      6.45    <-- DIS
     154       8.52074969       8.51987548       1.026E-04      6.49    <-- DIS
     155       8.52025287       8.51940080       1.000E-04      6.53    <-- DIS
     156       8.51976863       8.51893813       9.749E-05      6.58    <-- DIS
     157       8.51929665       8.51848718       9.502E-05      6.62    <-- DIS
     158       8.51883662       8.51804765       9.262E-05      6.66    <-- DIS
     159       8.51838824       8.51761925       9.028E-05      6.70    <-- DIS
     160       8.51795122       8.51720170       8.800E-05      6.75    <-- DIS
     161       8.51752526       8.51679473       8.578E-05      6.79    <-- DIS
     162       8.51711009       8.51639806       8.361E-05      6.83    <-- DIS
     163       8.51670544       8.51601144       8.149E-05      6.87    <-- DIS
     164       8.51631103       8.51563461       7.943E-05      6.91    <-- DIS
     165       8.51592662       8.51526733       7.742E-05      6.96    <-- DIS
     166       8.51555194       8.51490936       7.547E-05      7.00    <-- DIS
     167       8.51518676       8.51456045       7.356E-05      7.04    <-- DIS
     168       8.51483082       8.51422039       7.170E-05      7.08    <-- DIS
     169       8.51448391       8.51388894       6.988E-05      7.13    <-- DIS
     170       8.51414578       8.51356589       6.811E-05      7.17    <-- DIS
     171       8.51381623       8.51325103       6.639E-05      7.21    <-- DIS
     172       8.51349502       8.51294415       6.471E-05      7.25    <-- DIS
     173       8.51318196       8.51264504       6.307E-05      7.29    <-- DIS
     174       8.51287683       8.51235352       6.148E-05      7.34    <-- DIS
     175       8.51257943       8.51206939       5.992E-05      7.38    <-- DIS
     176       8.51228957       8.51179246       5.840E-05      7.42    <-- DIS
     177       8.51200706       8.51152255       5.692E-05      7.46    <-- DIS
     178       8.51173171       8.51125949       5.548E-05      7.50    <-- DIS
     179       8.51146335       8.51100310       5.408E-05      7.55    <-- DIS
     180       8.51120178       8.51075320       5.271E-05      7.59    <-- DIS
     181       8.51094685       8.51050965       5.137E-05      7.63    <-- DIS
     182       8.51069839       8.51027227       5.007E-05      7.67    <-- DIS
     183       8.51045623       8.51004092       4.880E-05      7.72    <-- DIS
     184       8.51022020       8.50981543       4.757E-05      7.76    <-- DIS
     185       8.50999017       8.50959566       4.636E-05      7.80    <-- DIS
     186       8.50976597       8.50938147       4.519E-05      7.84    <-- DIS
     187       8.50954746       8.50917271       4.404E-05      7.88    <-- DIS
     188       8.50933449       8.50896925       4.292E-05      7.93    <-- DIS
     189       8.50912692       8.50877095       4.184E-05      7.97    <-- DIS
     190       8.50892462       8.50857769       4.078E-05      8.01    <-- DIS
     191       8.50872746       8.50838933       3.974E-05      8.05    <-- DIS
     192       8.50853530       8.50820575       3.873E-05      8.10    <-- DIS
     193       8.50834801       8.50802682       3.775E-05      8.14    <-- DIS
     194       8.50816548       8.50785245       3.679E-05      8.18    <-- DIS
     195       8.50798758       8.50768249       3.586E-05      8.22    <-- DIS
     196       8.50781420       8.50751686       3.495E-05      8.26    <-- DIS
     197       8.50764522       8.50735542       3.406E-05      8.31    <-- DIS
     198       8.50748053       8.50719809       3.320E-05      8.35    <-- DIS
     199       8.50732002       8.50704475       3.236E-05      8.39    <-- DIS
     200       8.50716359       8.50689531       3.154E-05      8.43    <-- DIS

     <<< Warning: Maximum number of disentanglement iterations reached >>>
          <<< Disentanglement convergence criteria not satisfied >>>

        Final Omega_I     8.50689531 (Ang^2)

 +----------------------------------------------------------------------------+

 Time to disentangle bands      8.515 (sec)

 Writing checkpoint file aiida.chk... done

 
 *------------------------------- WANNIERISE ---------------------------------*
 +--------------------------------------------------------------------+<-- CONV
 | Iter  Delta Spread     RMS Gradient      Spread (Ang^2)      Time  |<-- CONV
 +--------------------------------------------------------------------+<-- CONV
 
 ------------------------------------------------------------------------------
 Initial State
  WF centre and spread    1  (  5.800500,  3.348887,  2.368059 )     1.51991801
  WF centre and spread    2  (  5.800012,  3.348817,  2.025231 )     1.78254067
  WF centre and spread    3  (  5.800723,  3.589476,  2.537798 )     1.81118049
  WF centre and spread    4  (  5.800745,  3.106417,  2.537830 )     1.81000378
  WF centre and spread    5  (  3.866946,  2.232605,  1.578666 )     1.51992256
  WF centre and spread    6  (  3.866861,  2.232545,  1.921490 )     1.78251195
  WF centre and spread    7  (  3.867013,  1.992056,  1.408870 )     1.81112943
  WF centre and spread    8  (  3.867025,  2.475119,  1.408970 )     1.81016411
  Sum of centres and spreads ( 38.669825, 22.325922, 15.786914 )    13.84737101
 
      0     0.138E+02     0.0000000000       13.8473710118       8.55  <-- CONV
        O_D=      0.0094735 O_OD=      5.3310022 O_TOT=     13.8473710 <-- SPRD
 ------------------------------------------------------------------------------
 Cycle:      1
  WF centre and spread    1  (  5.800489,  3.356342,  2.378543 )     1.43679415
  WF centre and spread    2  (  5.800005,  3.349362,  2.008104 )     1.77398956
  WF centre and spread    3  (  5.800729,  3.593708,  2.540759 )     1.81205985
  WF centre and spread    4  (  5.800745,  3.093665,  2.540803 )     1.80666368
  WF centre and spread    5  (  3.866947,  2.225152,  1.568180 )     1.43679947
  WF centre and spread    6  (  3.866867,  2.231999,  1.938618 )     1.77396192
  WF centre and spread    7  (  3.867017,  1.987823,  1.405910 )     1.81200706
  WF centre and spread    8  (  3.867027,  2.487872,  1.405996 )     1.80681241
  Sum of centres and spreads ( 38.669825, 22.325922, 15.786914 )    13.65908811
 
      1    -0.188E+00     0.1818097631       13.6590881072       8.59  <-- CONV
        O_D=      0.0256503 O_OD=      5.1265425 O_TOT=     13.6590881 <-- SPRD
 Delta: O_D=  0.1617688E-01 O_OD= -0.2044598E+00 O_TOT= -0.1882829E+00 <-- DLTA
 ------------------------------------------------------------------------------
 Cycle:      2
  WF centre and spread    1  (  5.800471,  3.371329,  2.399276 )     1.33957727
  WF centre and spread    2  (  5.799997,  3.350378,  1.981450 )     1.75698078
  WF centre and spread    3  (  5.800742,  3.597891,  2.543719 )     1.81125723
  WF centre and spread    4  (  5.800747,  3.073479,  2.543843 )     1.79759542
  WF centre and spread    5  (  3.866949,  2.210165,  1.547447 )     1.33958361
  WF centre and spread    6  (  3.866870,  2.230980,  1.965272 )     1.75693666
  WF centre and spread    7  (  3.867020,  1.983639,  1.402951 )     1.81121351
  WF centre and spread    8  (  3.867031,  2.508061,  1.402956 )     1.79771588
  Sum of centres and spreads ( 38.669826, 22.325922, 15.786914 )    13.41086037
 
      2    -0.248E+00     0.2805414367       13.4108603693       8.62  <-- CONV
        O_D=      0.0215398 O_OD=      4.8824252 O_TOT=     13.4108604 <-- SPRD
 Delta: O_D= -0.4110501E-02 O_OD= -0.2441172E+00 O_TOT= -0.2482277E+00 <-- DLTA
 ------------------------------------------------------------------------------
 Cycle:      3
  WF centre and spread    1  (  5.800461,  3.380072,  2.411119 )     1.31390942
  WF centre and spread    2  (  5.799995,  3.350883,  1.968933 )     1.74517743
  WF centre and spread    3  (  5.800748,  3.598562,  2.544205 )     1.80841120
  WF centre and spread    4  (  5.800748,  3.063796,  2.544410 )     1.78992690
  WF centre and spread    5  (  3.866949,  2.201420,  1.535605 )     1.31391561
  WF centre and spread    6  (  3.866871,  2.230474,  1.977788 )     1.74515562
  WF centre and spread    7  (  3.867023,  1.982969,  1.402465 )     1.80834153
  WF centre and spread    8  (  3.867032,  2.517744,  1.402390 )     1.79007829
  Sum of centres and spreads ( 38.669827, 22.325921, 15.786915 )    13.31491598
 
      3    -0.959E-01     0.2412057994       13.3149159842       8.66  <-- CONV
        O_D=      0.0105020 O_OD=      4.7975187 O_TOT=     13.3149160 <-- SPRD
 Delta: O_D= -0.1103787E-01 O_OD= -0.8490652E-01 O_TOT= -0.9594439E-01 <-- DLTA
 ------------------------------------------------------------------------------
 Cycle:      4
  WF centre and spread    1  (  5.800453,  3.388919,  2.422823 )     1.30435642
  WF centre and spread    2  (  5.799993,  3.351299,  1.957160 )     1.73572649
  WF centre and spread    3  (  5.800755,  3.598627,  2.544259 )     1.80845103
  WF centre and spread    4  (  5.800748,  3.054535,  2.544557 )     1.78463988
  WF centre and spread    5  (  3.866948,  2.192573,  1.523901 )     1.30436230
  WF centre and spread    6  (  3.866872,  2.230058,  1.989561 )     1.73570807
  WF centre and spread    7  (  3.867025,  1.982904,  1.402412 )     1.80837740
  WF centre and spread    8  (  3.867032,  2.527007,  1.402242 )     1.78478638
  Sum of centres and spreads ( 38.669827, 22.325922, 15.786915 )    13.26640796
 
      4    -0.485E-01     0.1398238459       13.2664079639       8.69  <-- CONV
        O_D=      0.0082523 O_OD=      4.7512603 O_TOT=     13.2664080 <-- SPRD
 Delta: O_D= -0.2249645E-02 O_OD= -0.4625837E-01 O_TOT= -0.4850802E-01 <-- DLTA
 ------------------------------------------------------------------------------
 Cycle:      5
  WF centre and spread    1  (  5.800442,  3.400523,  2.437841 )     1.29978735
  WF centre and spread    2  (  5.799991,  3.351726,  1.942066 )     1.72480407
  WF centre and spread    3  (  5.800767,  3.598518,  2.544189 )     1.81057196
  WF centre and spread    4  (  5.800749,  3.042526,  2.544635 )     1.77939082
  WF centre and spread    5  (  3.866947,  2.180967,  1.508885 )     1.29979392
  WF centre and spread    6  (  3.866872,  2.229631,  2.004654 )     1.72478819
  WF centre and spread    7  (  3.867026,  1.983013,  1.402481 )     1.81049403
  WF centre and spread    8  (  3.867033,  2.539019,  1.402164 )     1.77951533
  Sum of centres and spreads ( 38.669828, 22.325922, 15.786915 )    13.22914567
 
      5    -0.373E-01     0.1207583065       13.2291456676       8.72  <-- CONV
        O_D=      0.0062366 O_OD=      4.7160137 O_TOT=     13.2291457 <-- SPRD
 Delta: O_D= -0.2015694E-02 O_OD= -0.3524660E-01 O_TOT= -0.3726230E-01 <-- DLTA
 ------------------------------------------------------------------------------
 Cycle:      6
  WF centre and spread    1  (  5.800415,  3.428237,  2.472582 )     1.29482699
  WF centre and spread    2  (  5.799989,  3.352308,  1.906739 )     1.70000430
  WF centre and spread    3  (  5.800795,  3.598212,  2.543980 )     1.81878681
  WF centre and spread    4  (  5.800753,  3.014054,  2.544906 )     1.76973921
  WF centre and spread    5  (  3.866944,  2.153250,  1.474148 )     1.29483376
  WF centre and spread    6  (  3.866870,  2.229046,  2.039978 )     1.70001902
  WF centre and spread    7  (  3.867027,  1.983319,  1.402691 )     1.81868944
  WF centre and spread    8  (  3.867036,  2.567496,  1.401890 )     1.76973624
  Sum of centres and spreads ( 38.669828, 22.325922, 15.786915 )    13.16663578
 
      6    -0.625E-01     0.1243238584       13.1666357822       8.76  <-- CONV
        O_D=      0.0144523 O_OD=      4.6452882 O_TOT=     13.1666358 <-- SPRD
 Delta: O_D=  0.8215672E-02 O_OD= -0.7072556E-01 O_TOT= -0.6250989E-01 <-- DLTA
 ------------------------------------------------------------------------------
 Cycle:      7
  WF centre and spread    1  (  5.800413,  3.431090,  2.475921 )     1.29234586
  WF centre and spread    2  (  5.799987,  3.352326,  1.903190 )     1.69103316
  WF centre and spread    3  (  5.800797,  3.598286,  2.544030 )     1.81323539
  WF centre and spread    4  (  5.800753,  3.011052,  2.545007 )     1.76158327
  WF centre and spread    5  (  3.866943,  2.150397,  1.470810 )     1.29235463
  WF centre and spread    6  (  3.866871,  2.229028,  2.043528 )     1.69103733
  WF centre and spread    7  (  3.867029,  1.983244,  1.402640 )     1.81314147
  WF centre and spread    8  (  3.867036,  2.570498,  1.401790 )     1.76163087
  Sum of centres and spreads ( 38.669828, 22.325922, 15.786915 )    13.11636197
 
      7    -0.503E-01     0.2021675215       13.1163619757       8.79  <-- CONV
        O_D=      0.0068789 O_OD=      4.6025877 O_TOT=     13.1163620 <-- SPRD
 Delta: O_D= -0.7573392E-02 O_OD= -0.4270041E-01 O_TOT= -0.5027381E-01 <-- DLTA
 ------------------------------------------------------------------------------
 Cycle:      8
  WF centre and spread    1  (  5.800403,  3.440802,  2.487183 )     1.29035918
  WF centre and spread    2  (  5.799986,  3.352362,  1.891404 )     1.67735885
  WF centre and spread    3  (  5.800807,  3.598425,  2.544128 )     1.81132793
  WF centre and spread    4  (  5.800753,  3.001013,  2.545292 )     1.75237382
  WF centre and spread    5  (  3.866941,  2.140684,  1.459549 )     1.29037082
  WF centre and spread    6  (  3.866871,  2.228991,  2.055312 )     1.67736592
  WF centre and spread    7  (  3.867031,  1.983105,  1.402542 )     1.81123411
  WF centre and spread    8  (  3.867035,  2.580539,  1.401504 )     1.75243640
  Sum of centres and spreads ( 38.669828, 22.325922, 15.786915 )    13.06282703
 
      8    -0.535E-01     0.1373023297       13.0628270290       8.83  <-- CONV
        O_D=      0.0095164 O_OD=      4.5464153 O_TOT=     13.0628270 <-- SPRD
 Delta: O_D=  0.2637527E-02 O_OD= -0.5617247E-01 O_TOT= -0.5353495E-01 <-- DLTA
 ------------------------------------------------------------------------------
 Cycle:      9
  WF centre and spread    1  (  5.800379,  3.462244,  2.511500 )     1.29185416
  WF centre and spread    2  (  5.799986,  3.352294,  1.866329 )     1.65210380
  WF centre and spread    3  (  5.800833,  3.598477,  2.544168 )     1.81286258
  WF centre and spread    4  (  5.800757,  2.979357,  2.545845 )     1.73736912
  WF centre and spread    5  (  3.866939,  2.119241,  1.435235 )     1.29186973
  WF centre and spread    6  (  3.866868,  2.229057,  2.080385 )     1.65211684
  WF centre and spread    7  (  3.867030,  1.983053,  1.402502 )     1.81277756
  WF centre and spread    8  (  3.867036,  2.602199,  1.400951 )     1.73739272
  Sum of centres and spreads ( 38.669828, 22.325922, 15.786915 )    12.98834652
 
      9    -0.745E-01     0.1517720319       12.9883465197       8.86  <-- CONV
        O_D=      0.0131374 O_OD=      4.4683139 O_TOT=     12.9883465 <-- SPRD
 Delta: O_D=  0.3620915E-02 O_OD= -0.7810142E-01 O_TOT= -0.7448051E-01 <-- DLTA
 ------------------------------------------------------------------------------
 Cycle:     10
  WF centre and spread    1  (  5.800319,  3.513670,  2.567047 )     1.29976599
  WF centre and spread    2  (  5.799985,  3.351391,  1.809446 )     1.59376242
  WF centre and spread    3  (  5.800893,  3.598001,  2.543818 )     1.82394144
  WF centre and spread    4  (  5.800766,  2.928889,  2.547350 )     1.70632059
  WF centre and spread    5  (  3.866934,  2.067811,  1.379696 )     1.29978593
  WF centre and spread    6  (  3.866861,  2.229957,  2.137263 )     1.59385138
  WF centre and spread    7  (  3.867033,  1.983528,  1.402850 )     1.82389274
  WF centre and spread    8  (  3.867036,  2.652674,  1.399444 )     1.70605289
  Sum of centres and spreads ( 38.669829, 22.325921, 15.786914 )    12.84737339
 
     10    -0.141E+00     0.1864927952       12.8473733865       8.89  <-- CONV
        O_D=      0.0302883 O_OD=      4.3101898 O_TOT=     12.8473734 <-- SPRD
 Delta: O_D=  0.1715090E-01 O_OD= -0.1581240E+00 O_TOT= -0.1409731E+00 <-- DLTA
 ------------------------------------------------------------------------------
 Cycle:     11
  WF centre and spread    1  (  5.800049,  3.691979,  2.728388 )     1.39338536
  WF centre and spread    2  (  5.800013,  3.346222,  1.641416 )     1.37349372
  WF centre and spread    3  (  5.801124,  3.589890,  2.537668 )     1.90232805
  WF centre and spread    4  (  5.800797,  2.761708,  2.560054 )     1.57036954
  WF centre and spread    5  (  3.866925,  1.889477,  1.218381 )     1.39347502
  WF centre and spread    6  (  3.866841,  2.235135,  2.305285 )     1.37376853
  WF centre and spread    7  (  3.867062,  1.991640,  1.409000 )     1.90225532
  WF centre and spread    8  (  3.867020,  2.819871,  1.386720 )     1.56939408
  Sum of centres and spreads ( 38.669829, 22.325923, 15.786913 )    12.47846963
 
     11    -0.369E+00     0.3125979814       12.4784696264       8.93  <-- CONV
        O_D=      0.1139720 O_OD=      3.8576023 O_TOT=     12.4784696 <-- SPRD
 Delta: O_D=  0.8368377E-01 O_OD= -0.4525875E+00 O_TOT= -0.3689038E+00 <-- DLTA
 ------------------------------------------------------------------------------
 Cycle:     12
  WF centre and spread    1  (  5.800041,  3.695301,  2.729611 )     1.35083663
  WF centre and spread    2  (  5.800013,  3.346415,  1.638176 )     1.31273196
  WF centre and spread    3  (  5.801133,  3.591233,  2.538701 )     1.84431704
  WF centre and spread    4  (  5.800796,  2.757196,  2.561473 )     1.50605142
  WF centre and spread    5  (  3.866921,  1.886158,  1.217160 )     1.35093782
  WF centre and spread    6  (  3.866840,  2.234940,  2.308524 )     1.31290413
  WF centre and spread    7  (  3.867072,  1.990298,  1.407965 )     1.84422458
  WF centre and spread    8  (  3.867014,  2.824382,  1.385303 )     1.50536035
  Sum of centres and spreads ( 38.669830, 22.325922, 15.786914 )    12.02736391
 
     12    -0.451E+00     0.5977248092       12.0273639138       8.96  <-- CONV
        O_D=      0.0362641 O_OD=      3.4842045 O_TOT=     12.0273639 <-- SPRD
 Delta: O_D= -0.7770793E-01 O_OD= -0.3733978E+00 O_TOT= -0.4511057E+00 <-- DLTA
 ------------------------------------------------------------------------------
 Cycle:     13
  WF centre and spread    1  (  5.800021,  3.701805,  2.732016 )     1.30881336
  WF centre and spread    2  (  5.800016,  3.346777,  1.632497 )     1.28673847
  WF centre and spread    3  (  5.801151,  3.593231,  2.540234 )     1.82560374
  WF centre and spread    4  (  5.800790,  2.748901,  2.563872 )     1.47403676
  WF centre and spread    5  (  3.866917,  1.879656,  1.214758 )     1.30891498
  WF centre and spread    6  (  3.866847,  2.234580,  2.314203 )     1.28682172
  WF centre and spread    7  (  3.867081,  1.988299,  1.406435 )     1.82549385
  WF centre and spread    8  (  3.867007,  2.832673,  1.382900 )     1.47380897
  Sum of centres and spreads ( 38.669831, 22.325922, 15.786914 )    11.79023186
 
     13    -0.237E+00     0.3586847005       11.7902318564       9.00  <-- CONV
        O_D=      0.0269585 O_OD=      3.2563780 O_TOT=     11.7902319 <-- SPRD
 Delta: O_D= -0.9305556E-02 O_OD= -0.2278265E+00 O_TOT= -0.2371321E+00 <-- DLTA
 ------------------------------------------------------------------------------
 Cycle:     14
  WF centre and spread    1  (  5.799976,  3.714609,  2.736623 )     1.26099496
  WF centre and spread    2  (  5.800014,  3.347468,  1.622533 )     1.26321299
  WF centre and spread    3  (  5.801191,  3.595896,  2.542255 )     1.81563879
  WF centre and spread    4  (  5.800788,  2.733547,  2.567998 )     1.44552366
  WF centre and spread    5  (  3.866914,  1.866852,  1.210152 )     1.26108946
  WF centre and spread    6  (  3.866850,  2.233891,  2.324167 )     1.26329491
  WF centre and spread    7  (  3.867091,  1.985634,  1.404415 )     1.81553482
  WF centre and spread    8  (  3.867008,  2.848026,  1.378773 )     1.44536189
  Sum of centres and spreads ( 38.669832, 22.325922, 15.786915 )    11.57065149
 
     14    -0.220E+00     0.2812592463       11.5706514947       9.03  <-- CONV
        O_D=      0.0247018 O_OD=      3.0390544 O_TOT=     11.5706515 <-- SPRD
 Delta: O_D= -0.2256715E-02 O_OD= -0.2173236E+00 O_TOT= -0.2195804E+00 <-- DLTA
 ------------------------------------------------------------------------------
 Cycle:     15
  WF centre and spread    1  (  5.799924,  3.728171,  2.741069 )     1.23050504
  WF centre and spread    2  (  5.800012,  3.348201,  1.613408 )     1.24545094
  WF centre and spread    3  (  5.801240,  3.597426,  2.543399 )     1.81231121
  WF centre and spread    4  (  5.800792,  2.718179,  2.571901 )     1.42194743
  WF centre and spread    5  (  3.866910,  1.853290,  1.205705 )     1.23059264
  WF centre and spread    6  (  3.866847,  2.233159,  2.333293 )     1.24554678
  WF centre and spread    7  (  3.867101,  1.984103,  1.403269 )     1.81224295
  WF centre and spread    8  (  3.867008,  2.863393,  1.374871 )     1.42171500
  Sum of centres and spreads ( 38.669834, 22.325922, 15.786915 )    11.42031199
 
     15    -0.150E+00     0.2573173225       11.4203119898       9.06  <-- CONV
        O_D=      0.0146394 O_OD=      2.8987773 O_TOT=     11.4203120 <-- SPRD
 Delta: O_D= -0.1006243E-01 O_OD= -0.1402771E+00 O_TOT= -0.1503395E+00 <-- DLTA
 ------------------------------------------------------------------------------
 Cycle:     16
  WF centre and spread    1  (  5.799863,  3.742547,  2.745055 )     1.21110355
  WF centre and spread    2  (  5.800012,  3.349100,  1.605211 )     1.23024714
  WF centre and spread    3  (  5.801297,  3.598145,  2.543942 )     1.81289866
  WF centre and spread    4  (  5.800791,  2.702561,  2.575906 )     1.39838881
  WF centre and spread    5  (  3.866907,  1.838913,  1.201719 )     1.21120316
  WF centre and spread    6  (  3.866849,  2.232261,  2.341490 )     1.23036246
  WF centre and spread    7  (  3.867111,  1.983385,  1.402727 )     1.81282235
  WF centre and spread    8  (  3.867004,  2.879010,  1.370863 )     1.39813217
  Sum of centres and spreads ( 38.669834, 22.325922, 15.786914 )    11.30515829
 
     16    -0.115E+00     0.2242966838       11.3051582919       9.10  <-- CONV
        O_D=      0.0233569 O_OD=      2.7749061 O_TOT=     11.3051583 <-- SPRD
 Delta: O_D=  0.8717483E-02 O_OD= -0.1238712E+00 O_TOT= -0.1151537E+00 <-- DLTA
 ------------------------------------------------------------------------------
 Cycle:     17
  WF centre and spread    1  (  5.799751,  3.765626,  2.749946 )     1.20164501
  WF centre and spread    2  (  5.800010,  3.351066,  1.594423 )     1.20446119
  WF centre and spread    3  (  5.801404,  3.597932,  2.543803 )     1.81245407
  WF centre and spread    4  (  5.800788,  2.678417,  2.582626 )     1.35151573
  WF centre and spread    5  (  3.866900,  1.815837,  1.196830 )     1.20177423
  WF centre and spread    6  (  3.866855,  2.230296,  2.352278 )     1.20444631
  WF centre and spread    7  (  3.867133,  1.983599,  1.402868 )     1.81238525
  WF centre and spread    8  (  3.866995,  2.903149,  1.364140 )     1.35148280
  Sum of centres and spreads ( 38.669836, 22.325921, 15.786914 )    11.14016460
 
     17    -0.165E+00     0.2464391366       11.1401645960       9.13  <-- CONV
        O_D=      0.0110317 O_OD=      2.6222376 O_TOT=     11.1401646 <-- SPRD
 Delta: O_D= -0.1232515E-01 O_OD= -0.1526685E+00 O_TOT= -0.1649937E+00 <-- DLTA
 ------------------------------------------------------------------------------
 Cycle:     18
  WF centre and spread    1  (  5.799734,  3.768075,  2.750131 )     1.19929471
  WF centre and spread    2  (  5.800011,  3.351252,  1.593287 )     1.19708856
  WF centre and spread    3  (  5.801423,  3.598086,  2.543906 )     1.80819874
  WF centre and spread    4  (  5.800788,  2.675617,  2.583459 )     1.34184788
  WF centre and spread    5  (  3.866897,  1.813388,  1.196645 )     1.19943221
  WF centre and spread    6  (  3.866854,  2.230111,  2.353415 )     1.19707565
  WF centre and spread    7  (  3.867136,  1.983445,  1.402765 )     1.80812253
  WF centre and spread    8  (  3.866994,  2.905948,  1.363307 )     1.34178880
  Sum of centres and spreads ( 38.669836, 22.325922, 15.786914 )    11.09284908
 
     18    -0.473E-01     0.1716021870       11.0928490857       9.17  <-- CONV
        O_D=      0.0067512 O_OD=      2.5792026 O_TOT=     11.0928491 <-- SPRD
 Delta: O_D= -0.4280565E-02 O_OD= -0.4303494E-01 O_TOT= -0.4731551E-01 <-- DLTA
 ------------------------------------------------------------------------------
 Cycle:     19
  WF centre and spread    1  (  5.799686,  3.774264,  2.750461 )     1.19939479
  WF centre and spread    2  (  5.800009,  3.351785,  1.590656 )     1.18897400
  WF centre and spread    3  (  5.801473,  3.598338,  2.544081 )     1.80766339
  WF centre and spread    4  (  5.800788,  2.668675,  2.585623 )     1.32721018
  WF centre and spread    5  (  3.866890,  1.807200,  1.196315 )     1.19953959
  WF centre and spread    6  (  3.866853,  2.229579,  2.356045 )     1.18897024
  WF centre and spread    7  (  3.867145,  1.983193,  1.402589 )     1.80758229
  WF centre and spread    8  (  3.866992,  2.912888,  1.361143 )     1.32711404
  Sum of centres and spreads ( 38.669837, 22.325922, 15.786914 )    11.04644852
 
     19    -0.464E-01     0.1316907305       11.0464485205       9.20  <-- CONV
        O_D=      0.0071192 O_OD=      2.5324341 O_TOT=     11.0464485 <-- SPRD
 Delta: O_D=  0.3680041E-03 O_OD= -0.4676857E-01 O_TOT= -0.4640057E-01 <-- DLTA
 ------------------------------------------------------------------------------
 Cycle:     20
  WF centre and spread    1  (  5.799581,  3.786546,  2.750474 )     1.20554679
  WF centre and spread    2  (  5.800006,  3.353090,  1.585753 )     1.17547866
  WF centre and spread    3  (  5.801585,  3.598507,  2.544208 )     1.80958085
  WF centre and spread    4  (  5.800789,  2.654931,  2.590398 )     1.29928716
  WF centre and spread    5  (  3.866877,  1.794921,  1.196302 )     1.20569734
  WF centre and spread    6  (  3.866851,  2.228274,  2.360949 )     1.17548849
  WF centre and spread    7  (  3.867162,  1.983024,  1.402463 )     1.80949390
  WF centre and spread    8  (  3.866987,  2.926628,  1.356367 )     1.29910768
  Sum of centres and spreads ( 38.669838, 22.325921, 15.786914 )    10.97968086
 
     20    -0.668E-01     0.1436335153       10.9796808580       9.23  <-- CONV
        O_D=      0.0116818 O_OD=      2.4611038 O_TOT=     10.9796809 <-- SPRD
 Delta: O_D=  0.4562603E-02 O_OD= -0.7133027E-01 O_TOT= -0.6676766E-01 <-- DLTA
 ------------------------------------------------------------------------------
 Cycle:     21
  WF centre and spread    1  (  5.799428,  3.801372,  2.748963 )     1.21949604
  WF centre and spread    2  (  5.800003,  3.355315,  1.580039 )     1.15790137
  WF centre and spread    3  (  5.801750,  3.598221,  2.544000 )     1.81321272
  WF centre and spread    4  (  5.800788,  2.638000,  2.597553 )     1.25919744
  WF centre and spread    5  (  3.866859,  1.780099,  1.197814 )     1.21963772
  WF centre and spread    6  (  3.866845,  2.226048,  2.366663 )     1.15790201
  WF centre and spread    7  (  3.867188,  1.983310,  1.402670 )     1.81314630
  WF centre and spread    8  (  3.866979,  2.943554,  1.349212 )     1.25911718
  Sum of centres and spreads ( 38.669840, 22.325920, 15.786914 )    10.89961079
 
     21    -0.801E-01     0.1814273277       10.8996107863       9.27  <-- CONV
        O_D=      0.0125450 O_OD=      2.3801705 O_TOT=     10.8996108 <-- SPRD
 Delta: O_D=  0.8632129E-03 O_OD= -0.8093328E-01 O_TOT= -0.8007007E-01 <-- DLTA
 ------------------------------------------------------------------------------
 Cycle:     22
  WF centre and spread    1  (  5.799260,  3.813229,  2.745771 )     1.23727054
  WF centre and spread    2  (  5.799997,  3.358004,  1.575483 )     1.14098910
  WF centre and spread    3  (  5.801930,  3.597691,  2.543595 )     1.81515630
  WF centre and spread    4  (  5.800785,  2.623828,  2.605314 )     1.22193529
  WF centre and spread    5  (  3.866840,  1.768247,  1.201007 )     1.23743400
  WF centre and spread    6  (  3.866842,  2.223359,  2.371220 )     1.14099225
  WF centre and spread    7  (  3.867218,  1.983840,  1.403074 )     1.81508081
  WF centre and spread    8  (  3.866970,  2.957721,  1.341450 )     1.22184448
  Sum of centres and spreads ( 38.669842, 22.325920, 15.786914 )    10.83070278
 
     22    -0.689E-01     0.1588618315       10.8307027788       9.30  <-- CONV
        O_D=      0.0156985 O_OD=      2.3081090 O_TOT=     10.8307028 <-- SPRD
 Delta: O_D=  0.3153516E-02 O_OD= -0.7206152E-01 O_TOT= -0.6890801E-01 <-- DLTA
 ------------------------------------------------------------------------------
 Cycle:     23
  WF centre and spread    1  (  5.799086,  3.821593,  2.741340 )     1.25554231
  WF centre and spread    2  (  5.799987,  3.360959,  1.572143 )     1.12622157
  WF centre and spread    3  (  5.802123,  3.597292,  2.543289 )     1.81556758
  WF centre and spread    4  (  5.800779,  2.613027,  2.613278 )     1.18853009
  WF centre and spread    5  (  3.866820,  1.759888,  1.205439 )     1.25573430
  WF centre and spread    6  (  3.866837,  2.220405,  2.374561 )     1.12619706
  WF centre and spread    7  (  3.867250,  1.984239,  1.403381 )     1.81548935
  WF centre and spread    8  (  3.866961,  2.968518,  1.333484 )     1.18843956
  Sum of centres and spreads ( 38.669844, 22.325921, 15.786914 )    10.77172183
 
     23    -0.590E-01     0.1609077363       10.7717218286       9.34  <-- CONV
        O_D=      0.0126668 O_OD=      2.2521597 O_TOT=     10.7717218 <-- SPRD
 Delta: O_D= -0.3031691E-02 O_OD= -0.5594926E-01 O_TOT= -0.5898095E-01 <-- DLTA
 ------------------------------------------------------------------------------
 Cycle:     24
  WF centre and spread    1  (  5.799063,  3.822153,  2.741166 )     1.25305107
  WF centre and spread    2  (  5.799986,  3.361044,  1.571878 )     1.12259737
  WF centre and spread    3  (  5.802149,  3.597457,  2.543404 )     1.81173085
  WF centre and spread    4  (  5.800778,  2.612380,  2.613753 )     1.18377386
  WF centre and spread    5  (  3.866816,  1.759329,  1.205613 )     1.25324033
  WF centre and spread    6  (  3.866837,  2.220320,  2.374825 )     1.12257482
  WF centre and spread    7  (  3.867254,  1.984074,  1.403265 )     1.81165130
  WF centre and spread    8  (  3.866961,  2.969164,  1.333010 )     1.18370271
  Sum of centres and spreads ( 38.669844, 22.325920, 15.786914 )    10.74232231
 
     24    -0.294E-01     0.1515998852       10.7423223136       9.37  <-- CONV
        O_D=      0.0083329 O_OD=      2.2270941 O_TOT=     10.7423223 <-- SPRD
 Delta: O_D= -0.4333937E-02 O_OD= -0.2506558E-01 O_TOT= -0.2939952E-01 <-- DLTA
 ------------------------------------------------------------------------------
 Cycle:     25
  WF centre and spread    1  (  5.798996,  3.823626,  2.740609 )     1.25055698
  WF centre and spread    2  (  5.799983,  3.361298,  1.571285 )     1.12023745
  WF centre and spread    3  (  5.802220,  3.597824,  2.543673 )     1.80844829
  WF centre and spread    4  (  5.800777,  2.610741,  2.615067 )     1.17802237
  WF centre and spread    5  (  3.866806,  1.757857,  1.206170 )     1.25073703
  WF centre and spread    6  (  3.866837,  2.220066,  2.375419 )     1.12021492
  WF centre and spread    7  (  3.867267,  1.983707,  1.402996 )     1.80837669
  WF centre and spread    8  (  3.866960,  2.970801,  1.331694 )     1.17799025
  Sum of centres and spreads ( 38.669845, 22.325921, 15.786914 )    10.71458397
 
     25    -0.277E-01     0.1071723472       10.7145839740       9.40  <-- CONV
        O_D=      0.0049343 O_OD=      2.2027544 O_TOT=     10.7145840 <-- SPRD
 Delta: O_D= -0.3398580E-02 O_OD= -0.2433976E-01 O_TOT= -0.2773834E-01 <-- DLTA
 ------------------------------------------------------------------------------
 Cycle:     26
  WF centre and spread    1  (  5.798881,  3.825772,  2.739502 )     1.25006805
  WF centre and spread    2  (  5.799976,  3.361711,  1.570491 )     1.11819391
  WF centre and spread    3  (  5.802340,  3.598209,  2.543964 )     1.80547589
  WF centre and spread    4  (  5.800775,  2.608357,  2.617199 )     1.17117446
  WF centre and spread    5  (  3.866790,  1.755712,  1.207277 )     1.25024873
  WF centre and spread    6  (  3.866837,  2.219653,  2.376213 )     1.11817511
  WF centre and spread    7  (  3.867288,  1.983322,  1.402706 )     1.80540487
  WF centre and spread    8  (  3.866958,  2.973185,  1.329563 )     1.17113552
  Sum of centres and spreads ( 38.669846, 22.325921, 15.786914 )    10.68987654
 
     26    -0.247E-01     0.0930001611       10.6898765406       9.44  <-- CONV
        O_D=      0.0038124 O_OD=      2.1791688 O_TOT=     10.6898765 <-- SPRD
 Delta: O_D= -0.1121891E-02 O_OD= -0.2358554E-01 O_TOT= -0.2470743E-01 <-- DLTA
 ------------------------------------------------------------------------------
 Cycle:     27
  WF centre and spread    1  (  5.798767,  3.827525,  2.738295 )     1.25138728
  WF centre and spread    2  (  5.799971,  3.362090,  1.569905 )     1.11665058
  WF centre and spread    3  (  5.802460,  3.598371,  2.544090 )     1.80383903
  WF centre and spread    4  (  5.800773,  2.606410,  2.619157 )     1.16503911
  WF centre and spread    5  (  3.866775,  1.753960,  1.208483 )     1.25157296
  WF centre and spread    6  (  3.866837,  2.219273,  2.376799 )     1.11663032
  WF centre and spread    7  (  3.867308,  1.983160,  1.402580 )     1.80377061
  WF centre and spread    8  (  3.866956,  2.975131,  1.327605 )     1.16501172
  Sum of centres and spreads ( 38.669847, 22.325921, 15.786914 )    10.67390160
 
     27    -0.160E-01     0.0904241530       10.6739016050       9.47  <-- CONV
        O_D=      0.0035470 O_OD=      2.1634593 O_TOT=     10.6739016 <-- SPRD
 Delta: O_D= -0.2654342E-03 O_OD= -0.1570950E-01 O_TOT= -0.1597494E-01 <-- DLTA
 ------------------------------------------------------------------------------
 Cycle:     28
  WF centre and spread    1  (  5.798648,  3.828999,  2.737001 )     1.25396972
  WF centre and spread    2  (  5.799966,  3.362438,  1.569468 )     1.11534945
  WF centre and spread    3  (  5.802587,  3.598406,  2.544119 )     1.80301593
  WF centre and spread    4  (  5.800771,  2.604764,  2.621003 )     1.15941948
  WF centre and spread    5  (  3.866758,  1.752488,  1.209777 )     1.25416024
  WF centre and spread    6  (  3.866837,  2.218925,  2.377237 )     1.11532551
  WF centre and spread    7  (  3.867328,  1.983126,  1.402551 )     1.80294887
  WF centre and spread    8  (  3.866954,  2.976776,  1.325759 )     1.15939971
  Sum of centres and spreads ( 38.669848, 22.325921, 15.786914 )    10.66358891
 
     28    -0.103E-01     0.0695313861       10.6635889091       9.51  <-- CONV
        O_D=      0.0036855 O_OD=      2.1530081 O_TOT=     10.6635889 <-- SPRD
 Delta: O_D=  0.1385088E-03 O_OD= -0.1045120E-01 O_TOT= -0.1031270E-01 <-- DLTA
 ------------------------------------------------------------------------------
 Cycle:     29
  WF centre and spread    1  (  5.798513,  3.830335,  2.735567 )     1.25728080
  WF centre and spread    2  (  5.799960,  3.362773,  1.569087 )     1.11413550
  WF centre and spread    3  (  5.802730,  3.598404,  2.544120 )     1.80275506
  WF centre and spread    4  (  5.800768,  2.603238,  2.622895 )     1.15384321
  WF centre and spread    5  (  3.866738,  1.751153,  1.211210 )     1.25747427
  WF centre and spread    6  (  3.866837,  2.218589,  2.377617 )     1.11410665
  WF centre and spread    7  (  3.867351,  1.983127,  1.402550 )     1.80269079
  WF centre and spread    8  (  3.866952,  2.978301,  1.323867 )     1.15383164
  Sum of centres and spreads ( 38.669850, 22.325921, 15.786914 )    10.65611792
 
     29    -0.747E-02     0.0591550835       10.6561179203       9.54  <-- CONV
        O_D=      0.0032605 O_OD=      2.1459621 O_TOT=     10.6561179 <-- SPRD
 Delta: O_D= -0.4249677E-03 O_OD= -0.7046021E-02 O_TOT= -0.7470989E-02 <-- DLTA
 ------------------------------------------------------------------------------
 Cycle:     30
  WF centre and spread    1  (  5.798475,  3.830571,  2.735250 )     1.25770863
  WF centre and spread    2  (  5.799959,  3.362819,  1.568999 )     1.11330059
  WF centre and spread    3  (  5.802771,  3.598426,  2.544133 )     1.80240469
  WF centre and spread    4  (  5.800768,  2.602938,  2.623275 )     1.15222009
  WF centre and spread    5  (  3.866732,  1.750917,  1.211527 )     1.25790364
  WF centre and spread    6  (  3.866836,  2.218544,  2.377705 )     1.11327204
  WF centre and spread    7  (  3.867357,  1.983105,  1.402537 )     1.80234039
  WF centre and spread    8  (  3.866951,  2.978601,  1.323487 )     1.15220545
  Sum of centres and spreads ( 38.669851, 22.325921, 15.786914 )    10.65135552
 
     30    -0.476E-02     0.0555363830       10.6513555208       9.57  <-- CONV
        O_D=      0.0026798 O_OD=      2.1417805 O_TOT=     10.6513555 <-- SPRD
 Delta: O_D= -0.5807456E-03 O_OD= -0.4181654E-02 O_TOT= -0.4762400E-02 <-- DLTA
 ------------------------------------------------------------------------------
 Cycle:     31
  WF centre and spread    1  (  5.798373,  3.831162,  2.734400 )     1.25937903
  WF centre and spread    2  (  5.799955,  3.362942,  1.568815 )     1.11228127
  WF centre and spread    3  (  5.802881,  3.598457,  2.544153 )     1.80254473
  WF centre and spread    4  (  5.800766,  2.602209,  2.624272 )     1.14898741
  WF centre and spread    5  (  3.866717,  1.750326,  1.212377 )     1.25957429
  WF centre and spread    6  (  3.866836,  2.218421,  2.377890 )     1.11225307
  WF centre and spread    7  (  3.867375,  1.983074,  1.402517 )     1.80248082
  WF centre and spread    8  (  3.866950,  2.979329,  1.322490 )     1.14897381
  Sum of centres and spreads ( 38.669852, 22.325921, 15.786914 )    10.64647443
 
     31    -0.488E-02     0.0437575306       10.6464744299       9.61  <-- CONV
        O_D=      0.0021898 O_OD=      2.1373893 O_TOT=     10.6464744 <-- SPRD
 Delta: O_D= -0.4899159E-03 O_OD= -0.4391175E-02 O_TOT= -0.4881091E-02 <-- DLTA
 ------------------------------------------------------------------------------
 Cycle:     32
  WF centre and spread    1  (  5.798186,  3.832105,  2.732884 )     1.26271200
  WF centre and spread    2  (  5.799948,  3.363155,  1.568540 )     1.11086846
  WF centre and spread    3  (  5.803080,  3.598466,  2.544157 )     1.80314560
  WF centre and spread    4  (  5.800762,  2.601062,  2.626017 )     1.14376601
  WF centre and spread    5  (  3.866688,  1.749384,  1.213893 )     1.26290734
  WF centre and spread    6  (  3.866835,  2.218208,  2.378164 )     1.11083937
  WF centre and spread    7  (  3.867406,  1.983065,  1.402513 )     1.80308315
  WF centre and spread    8  (  3.866948,  2.980476,  1.320745 )     1.14375172
  Sum of centres and spreads ( 38.669854, 22.325921, 15.786914 )    10.64107365
 
     32    -0.540E-02     0.0437121190       10.6410736495       9.64  <-- CONV
        O_D=      0.0022510 O_OD=      2.1319274 O_TOT=     10.6410736 <-- SPRD
 Delta: O_D=  0.6111921E-04 O_OD= -0.5461900E-02 O_TOT= -0.5400780E-02 <-- DLTA
 ------------------------------------------------------------------------------
 Cycle:     33
  WF centre and spread    1  (  5.797893,  3.833318,  2.730576 )     1.26796998
  WF centre and spread    2  (  5.799938,  3.363473,  1.568150 )     1.10892769
  WF centre and spread    3  (  5.803395,  3.598454,  2.544146 )     1.80411058
  WF centre and spread    4  (  5.800755,  2.599567,  2.628655 )     1.13628421
  WF centre and spread    5  (  3.866644,  1.748172,  1.216199 )     1.26816711
  WF centre and spread    6  (  3.866833,  2.217888,  2.378555 )     1.10889736
  WF centre and spread    7  (  3.867456,  1.983077,  1.402524 )     1.80405038
  WF centre and spread    8  (  3.866944,  2.981970,  1.318109 )     1.13627546
  Sum of centres and spreads ( 38.669858, 22.325921, 15.786914 )    10.63468277
 
     33    -0.639E-02     0.0494162149       10.6346827668       9.68  <-- CONV
        O_D=      0.0029135 O_OD=      2.1248739 O_TOT=     10.6346828 <-- SPRD
 Delta: O_D=  0.6625784E-03 O_OD= -0.7053461E-02 O_TOT= -0.6390883E-02 <-- DLTA
 ------------------------------------------------------------------------------
 Cycle:     34
  WF centre and spread    1  (  5.797529,  3.834440,  2.727916 )     1.27431916
  WF centre and spread    2  (  5.799924,  3.363823,  1.567716 )     1.10680836
  WF centre and spread    3  (  5.803787,  3.598436,  2.544130 )     1.80488191
  WF centre and spread    4  (  5.800746,  2.598158,  2.631698 )     1.12827872
  WF centre and spread    5  (  3.866590,  1.747052,  1.218859 )     1.27452172
  WF centre and spread    6  (  3.866830,  2.217538,  2.378989 )     1.10677713
  WF centre and spread    7  (  3.867517,  1.983095,  1.402540 )     1.80482232
  WF centre and spread    8  (  3.866940,  2.983378,  1.315066 )     1.12826719
  Sum of centres and spreads ( 38.669862, 22.325921, 15.786914 )    10.62867651
 
     34    -0.601E-02     0.0456742746       10.6286765135       9.71  <-- CONV
        O_D=      0.0036716 O_OD=      2.1181097 O_TOT=     10.6286765 <-- SPRD
 Delta: O_D=  0.7580197E-03 O_OD= -0.6764273E-02 O_TOT= -0.6006253E-02 <-- DLTA
 ------------------------------------------------------------------------------
 Cycle:     35
  WF centre and spread    1  (  5.797160,  3.835236,  2.725456 )     1.28029474
  WF centre and spread    2  (  5.799909,  3.364122,  1.567340 )     1.10496474
  WF centre and spread    3  (  5.804185,  3.598418,  2.544114 )     1.80529340
  WF centre and spread    4  (  5.800735,  2.597152,  2.634514 )     1.12131287
  WF centre and spread    5  (  3.866534,  1.746258,  1.221318 )     1.28050274
  WF centre and spread    6  (  3.866827,  2.217238,  2.379364 )     1.10493040
  WF centre and spread    7  (  3.867580,  1.983114,  1.402556 )     1.80523768
  WF centre and spread    8  (  3.866935,  2.984384,  1.312251 )     1.12130163
  Sum of centres and spreads ( 38.669867, 22.325921, 15.786914 )    10.62383820
 
     35    -0.484E-02     0.0467574577       10.6238381963       9.74  <-- CONV
        O_D=      0.0035735 O_OD=      2.1133694 O_TOT=     10.6238382 <-- SPRD
 Delta: O_D= -0.9801804E-04 O_OD= -0.4740299E-02 O_TOT= -0.4838317E-02 <-- DLTA
 ------------------------------------------------------------------------------
 Cycle:     36
  WF centre and spread    1  (  5.797110,  3.835310,  2.725336 )     1.28036157
  WF centre and spread    2  (  5.799908,  3.364115,  1.567318 )     1.10451685
  WF centre and spread    3  (  5.804238,  3.598420,  2.544115 )     1.80476348
  WF centre and spread    4  (  5.800734,  2.597108,  2.634671 )     1.12059483
  WF centre and spread    5  (  3.866527,  1.746184,  1.221438 )     1.28056937
  WF centre and spread    6  (  3.866827,  2.217245,  2.379387 )     1.10448285
  WF centre and spread    7  (  3.867589,  1.983112,  1.402555 )     1.80470794
  WF centre and spread    8  (  3.866935,  2.984428,  1.312094 )     1.12058652
  Sum of centres and spreads ( 38.669867, 22.325921, 15.786914 )    10.62058342
 
     36    -0.325E-02     0.0511406748       10.6205834171       9.78  <-- CONV
        O_D=      0.0029119 O_OD=      2.1107762 O_TOT=     10.6205834 <-- SPRD
 Delta: O_D= -0.6616730E-03 O_OD= -0.2593106E-02 O_TOT= -0.3254779E-02 <-- DLTA
 ------------------------------------------------------------------------------
 Cycle:     37
  WF centre and spread    1  (  5.796978,  3.835493,  2.725019 )     1.28095637
  WF centre and spread    2  (  5.799903,  3.364098,  1.567266 )     1.10420122
  WF centre and spread    3  (  5.804379,  3.598426,  2.544119 )     1.80417964
  WF centre and spread    4  (  5.800731,  2.597003,  2.635082 )     1.11955478
  WF centre and spread    5  (  3.866507,  1.746001,  1.221755 )     1.28116380
  WF centre and spread    6  (  3.866826,  2.217261,  2.379438 )     1.10416701
  WF centre and spread    7  (  3.867611,  1.983107,  1.402551 )     1.80412675
  WF centre and spread    8  (  3.866934,  2.984532,  1.311683 )     1.11955023
  Sum of centres and spreads ( 38.669869, 22.325921, 15.786914 )    10.61789982
 
     37    -0.268E-02     0.0345817010       10.6178998162       9.81  <-- CONV
        O_D=      0.0021442 O_OD=      2.1088603 O_TOT=     10.6178998 <-- SPRD
 Delta: O_D= -0.7676483E-03 O_OD= -0.1915953E-02 O_TOT= -0.2683601E-02 <-- DLTA
 ------------------------------------------------------------------------------
 Cycle:     38
  WF centre and spread    1  (  5.796778,  3.835736,  2.724545 )     1.28202718
  WF centre and spread    2  (  5.799897,  3.364072,  1.567186 )     1.10395084
  WF centre and spread    3  (  5.804591,  3.598435,  2.544127 )     1.80364812
  WF centre and spread    4  (  5.800727,  2.596859,  2.635681 )     1.11832687
  WF centre and spread    5  (  3.866476,  1.745758,  1.222228 )     1.28223600
  WF centre and spread    6  (  3.866825,  2.217287,  2.379519 )     1.10391676
  WF centre and spread    7  (  3.867644,  1.983097,  1.402544 )     1.80359734
  WF centre and spread    8  (  3.866932,  2.984676,  1.311084 )     1.11832177
  Sum of centres and spreads ( 38.669871, 22.325921, 15.786914 )    10.61602488
 
     38    -0.187E-02     0.0271572337       10.6160248806       9.85  <-- CONV
        O_D=      0.0017738 O_OD=      2.1073557 O_TOT=     10.6160249 <-- SPRD
 Delta: O_D= -0.3703698E-03 O_OD= -0.1504566E-02 O_TOT= -0.1874936E-02 <-- DLTA
 ------------------------------------------------------------------------------
 Cycle:     39
  WF centre and spread    1  (  5.796559,  3.835965,  2.724037 )     1.28320144
  WF centre and spread    2  (  5.799889,  3.364041,  1.567107 )     1.10374770
  WF centre and spread    3  (  5.804825,  3.598440,  2.544131 )     1.80327609
  WF centre and spread    4  (  5.800722,  2.596727,  2.636306 )     1.11711328
  WF centre and spread    5  (  3.866443,  1.745529,  1.222736 )     1.28341218
  WF centre and spread    6  (  3.866824,  2.217317,  2.379598 )     1.10371383
  WF centre and spread    7  (  3.867681,  1.983093,  1.402540 )     1.80322765
  WF centre and spread    8  (  3.866931,  2.984808,  1.310459 )     1.11710858
  Sum of centres and spreads ( 38.669873, 22.325921, 15.786914 )    10.61480075
 
     39    -0.122E-02     0.0246079477       10.6148007555       9.88  <-- CONV
        O_D=      0.0017258 O_OD=      2.1061797 O_TOT=     10.6148008 <-- SPRD
 Delta: O_D= -0.4806770E-04 O_OD= -0.1176057E-02 O_TOT= -0.1224125E-02 <-- DLTA
 ------------------------------------------------------------------------------
 Cycle:     40
  WF centre and spread    1  (  5.796288,  3.836199,  2.723440 )     1.28458957
  WF centre and spread    2  (  5.799881,  3.363999,  1.567026 )     1.10353165
  WF centre and spread    3  (  5.805113,  3.598438,  2.544131 )     1.80299552
  WF centre and spread    4  (  5.800715,  2.596600,  2.637016 )     1.11576669
  WF centre and spread    5  (  3.866402,  1.745295,  1.223333 )     1.28480249
  WF centre and spread    6  (  3.866823,  2.217359,  2.379679 )     1.10349748
  WF centre and spread    7  (  3.867726,  1.983095,  1.402540 )     1.80295080
  WF centre and spread    8  (  3.866929,  2.984935,  1.309749 )     1.11576189
  Sum of centres and spreads ( 38.669876, 22.325921, 15.786914 )    10.61389608
 
     40    -0.905E-03     0.0197610307       10.6138960787       9.91  <-- CONV
        O_D=      0.0018118 O_OD=      2.1051890 O_TOT=     10.6138961 <-- SPRD
 Delta: O_D=  0.8598747E-04 O_OD= -0.9906643E-03 O_TOT= -0.9046768E-03 <-- DLTA
 ------------------------------------------------------------------------------
 Cycle:     41
  WF centre and spread    1  (  5.795958,  3.836435,  2.722757 )     1.28615642
  WF centre and spread    2  (  5.799870,  3.363945,  1.566936 )     1.10328841
  WF centre and spread    3  (  5.805464,  3.598437,  2.544131 )     1.80279226
  WF centre and spread    4  (  5.800707,  2.596476,  2.637813 )     1.11427924
  WF centre and spread    5  (  3.866351,  1.745060,  1.224016 )     1.28637173
  WF centre and spread    6  (  3.866821,  2.217413,  2.379769 )     1.10325372
  WF centre and spread    7  (  3.867781,  1.983096,  1.402540 )     1.80275215
  WF centre and spread    8  (  3.866927,  2.985059,  1.308952 )     1.11427480
  Sum of centres and spreads ( 38.669880, 22.325921, 15.786914 )    10.61316873
 
     41    -0.727E-03     0.0180285900       10.6131687300       9.95  <-- CONV
        O_D=      0.0018571 O_OD=      2.1044163 O_TOT=     10.6131687 <-- SPRD
 Delta: O_D=  0.4536833E-04 O_OD= -0.7727170E-03 O_TOT= -0.7273487E-03 <-- DLTA
 ------------------------------------------------------------------------------
 Cycle:     42
  WF centre and spread    1  (  5.795877,  3.836471,  2.722630 )     1.28637783
  WF centre and spread    2  (  5.799868,  3.363929,  1.566914 )     1.10315738
  WF centre and spread    3  (  5.805551,  3.598443,  2.544135 )     1.80274744
  WF centre and spread    4  (  5.800705,  2.596453,  2.637956 )     1.11394638
  WF centre and spread    5  (  3.866338,  1.745023,  1.224142 )     1.28659366
  WF centre and spread    6  (  3.866821,  2.217429,  2.379791 )     1.10312265
  WF centre and spread    7  (  3.867794,  1.983090,  1.402536 )     1.80270849
  WF centre and spread    8  (  3.866927,  2.985082,  1.308810 )     1.11394166
  Sum of centres and spreads ( 38.669881, 22.325921, 15.786914 )    10.61259547
 
     42    -0.573E-03     0.0194277472       10.6125954757       9.98  <-- CONV
        O_D=      0.0017751 O_OD=      2.1039250 O_TOT=     10.6125955 <-- SPRD
 Delta: O_D= -0.8200105E-04 O_OD= -0.4912533E-03 O_TOT= -0.5732543E-03 <-- DLTA
 ------------------------------------------------------------------------------
 Cycle:     43
  WF centre and spread    1  (  5.795657,  3.836564,  2.722296 )     1.28701690
  WF centre and spread    2  (  5.799861,  3.363886,  1.566866 )     1.10296017
  WF centre and spread    3  (  5.805785,  3.598452,  2.544141 )     1.80276143
  WF centre and spread    4  (  5.800700,  2.596403,  2.638328 )     1.11319936
  WF centre and spread    5  (  3.866304,  1.744931,  1.224476 )     1.28723386
[...]
  WF centre and spread    4  (  5.792828,  2.597458,  2.645279 )     1.11132525
  WF centre and spread    5  (  3.814981,  1.743131,  1.232600 )     1.30099768
  WF centre and spread    6  (  3.865445,  2.220135,  2.380878 )     1.10733301
  WF centre and spread    7  (  3.922428,  1.982521,  1.402144 )     1.80417675
  WF centre and spread    8  (  3.865537,  2.984691,  1.299797 )     1.10672156
  Sum of centres and spreads ( 38.673002, 22.326057, 15.787010 )    10.46274406
 
     84    -0.362E-01     0.1698188487       10.4627440610      11.42  <-- CONV
        O_D=      0.0217557 O_OD=      1.9340931 O_TOT=     10.4627441 <-- SPRD
 Delta: O_D= -0.8800774E-02 O_OD= -0.2741575E-01 O_TOT= -0.3621652E-01 <-- DLTA
 ------------------------------------------------------------------------------
 Cycle:     85
  WF centre and spread    1  (  5.482511,  3.822400,  2.702914 )     1.24233860
  WF centre and spread    2  (  5.791764,  3.359709,  1.567177 )     1.10886905
  WF centre and spread    3  (  6.137755,  3.615940,  2.556463 )     1.66195107
  WF centre and spread    4  (  5.792622,  2.597617,  2.645096 )     1.10859137
  WF centre and spread    5  (  3.812883,  1.743148,  1.232597 )     1.29930699
  WF centre and spread    6  (  3.865390,  2.220130,  2.380764 )     1.10393477
  WF centre and spread    7  (  3.924657,  1.982544,  1.402165 )     1.80127286
  WF centre and spread    8  (  3.865483,  2.984575,  1.299838 )     1.10365659
  Sum of centres and spreads ( 38.673066, 22.326062, 15.787014 )    10.42992130
 
     85    -0.328E-01     0.1170050494       10.4299213030      11.45  <-- CONV
        O_D=      0.0092297 O_OD=      1.9137963 O_TOT=     10.4299213 <-- SPRD
 Delta: O_D= -0.1252593E-01 O_OD= -0.2029683E-01 O_TOT= -0.3282276E-01 <-- DLTA
 ------------------------------------------------------------------------------
 Cycle:     86
  WF centre and spread    1  (  5.467103,  3.820693,  2.701717 )     1.23621562
  WF centre and spread    2  (  5.791433,  3.359506,  1.567390 )     1.10798983
  WF centre and spread    3  (  6.153887,  3.617765,  2.557753 )     1.64638830
  WF centre and spread    4  (  5.792293,  2.597749,  2.644835 )     1.10809319
  WF centre and spread    5  (  3.809384,  1.743174,  1.232606 )     1.29862108
  WF centre and spread    6  (  3.865298,  2.220135,  2.380699 )     1.10244098
  WF centre and spread    7  (  3.928374,  1.982532,  1.402157 )     1.79965199
  WF centre and spread    8  (  3.865393,  2.984516,  1.299864 )     1.10253315
  Sum of centres and spreads ( 38.673166, 22.326071, 15.787020 )    10.40193415
 
     86    -0.280E-01     0.1007360786       10.4019341485      11.49  <-- CONV
        O_D=      0.0041658 O_OD=      1.8908731 O_TOT=     10.4019341 <-- SPRD
 Delta: O_D= -0.5063961E-02 O_OD= -0.2292319E-01 O_TOT= -0.2798715E-01 <-- DLTA
 ------------------------------------------------------------------------------
 Cycle:     87
  WF centre and spread    1  (  5.447602,  3.818397,  2.700095 )     1.22877834
  WF centre and spread    2  (  5.791025,  3.359258,  1.567540 )     1.10936372
  WF centre and spread    3  (  6.174274,  3.620278,  2.559533 )     1.62696981
  WF centre and spread    4  (  5.791884,  2.597815,  2.644550 )     1.10943995
  WF centre and spread    5  (  3.804802,  1.743186,  1.232612 )     1.29831647
  WF centre and spread    6  (  3.865179,  2.220123,  2.380746 )     1.10301189
  WF centre and spread    7  (  3.933240,  1.982475,  1.402114 )     1.79890152
  WF centre and spread    8  (  3.865275,  2.984550,  1.299838 )     1.10306561
  Sum of centres and spreads ( 38.673280, 22.326082, 15.787029 )    10.37784731
 
     87    -0.241E-01     0.1007375778       10.3778473155      11.52  <-- CONV
        O_D=      0.0065722 O_OD=      1.8643798 O_TOT=     10.3778473 <-- SPRD
 Delta: O_D=  0.2406465E-02 O_OD= -0.2649330E-01 O_TOT= -0.2408683E-01 <-- DLTA
 ------------------------------------------------------------------------------
 Cycle:     88
  WF centre and spread    1  (  5.418571,  3.814566,  2.697381 )     1.21824133
  WF centre and spread    2  (  5.790431,  3.358833,  1.567821 )     1.11340193
  WF centre and spread    3  (  6.204561,  3.624408,  2.562464 )     1.59720546
  WF centre and spread    4  (  5.791287,  2.597931,  2.644058 )     1.11299173
  WF centre and spread    5  (  3.797625,  1.743261,  1.232668 )     1.29885042
  WF centre and spread    6  (  3.864995,  2.220138,  2.380786 )     1.10574389
  WF centre and spread    7  (  3.940863,  1.982368,  1.402028 )     1.79906346
  WF centre and spread    8  (  3.865092,  2.984597,  1.299837 )     1.10530970
  Sum of centres and spreads ( 38.673425, 22.326101, 15.787043 )    10.35080792
 
     88    -0.270E-01     0.0978167329       10.3508079219      11.55  <-- CONV
        O_D=      0.0156604 O_OD=      1.8282522 O_TOT=     10.3508079 <-- SPRD
 Delta: O_D=  0.9088208E-02 O_OD= -0.3612760E-01 O_TOT= -0.2703939E-01 <-- DLTA
 ------------------------------------------------------------------------------
 Cycle:     89
  WF centre and spread    1  (  5.375960,  3.807948,  2.692693 )     1.20302465
  WF centre and spread    2  (  5.789586,  3.358125,  1.568384 )     1.12136488
  WF centre and spread    3  (  6.248898,  3.631447,  2.567455 )     1.54970828
  WF centre and spread    4  (  5.790437,  2.598208,  2.643219 )     1.12009734
  WF centre and spread    5  (  3.786231,  1.743479,  1.232828 )     1.30049338
  WF centre and spread    6  (  3.864697,  2.220180,  2.380761 )     1.11156979
  WF centre and spread    7  (  3.952969,  1.982138,  1.401854 )     1.80030621
  WF centre and spread    8  (  3.864791,  2.984605,  1.299870 )     1.11028649
  Sum of centres and spreads ( 38.673569, 22.326131, 15.787064 )    10.31685102
 
     89    -0.340E-01     0.1090668896       10.3168510235      11.59  <-- CONV
        O_D=      0.0254651 O_OD=      1.7844906 O_TOT=     10.3168510 <-- SPRD
 Delta: O_D=  0.9804684E-02 O_OD= -0.4376158E-01 O_TOT= -0.3395690E-01 <-- DLTA
 ------------------------------------------------------------------------------
 Cycle:     90
  WF centre and spread    1  (  5.372188,  3.807312,  2.692246 )     1.19936598
  WF centre and spread    2  (  5.789531,  3.358052,  1.568406 )     1.11663266
  WF centre and spread    3  (  6.252776,  3.632169,  2.567957 )     1.54138310
  WF centre and spread    4  (  5.790384,  2.598217,  2.643135 )     1.11612200
  WF centre and spread    5  (  3.784927,  1.743513,  1.232848 )     1.29842596
  WF centre and spread    6  (  3.864660,  2.220180,  2.380794 )     1.10661762
  WF centre and spread    7  (  3.954354,  1.982065,  1.401811 )     1.79637967
  WF centre and spread    8  (  3.864756,  2.984624,  1.299868 )     1.10607895
  Sum of centres and spreads ( 38.673576, 22.326131, 15.787064 )    10.28100594
 
     90    -0.358E-01     0.1589676240       10.2810059431      11.62  <-- CONV
        O_D=      0.0178308 O_OD=      1.7562798 O_TOT=     10.2810059 <-- SPRD
 Delta: O_D= -0.7634286E-02 O_OD= -0.2821079E-01 O_TOT= -0.3584508E-01 <-- DLTA
 ------------------------------------------------------------------------------
 Cycle:     91
  WF centre and spread    1  (  5.362527,  3.805578,  2.691023 )     1.19410233
  WF centre and spread    2  (  5.789394,  3.357860,  1.568623 )     1.11447612
  WF centre and spread    3  (  6.262701,  3.634029,  2.569265 )     1.52713364
  WF centre and spread    4  (  5.790250,  2.598367,  2.642880 )     1.11454353
  WF centre and spread    5  (  3.781508,  1.743657,  1.232943 )     1.29718535
  WF centre and spread    6  (  3.864569,  2.220182,  2.380720 )     1.10384208
  WF centre and spread    7  (  3.957987,  1.981915,  1.401717 )     1.79378136
  WF centre and spread    8  (  3.864665,  2.984547,  1.299894 )     1.10388879
  Sum of centres and spreads ( 38.673601, 22.326134, 15.787066 )    10.24895321
 
     91    -0.321E-01     0.1150054283       10.2489532117      11.66  <-- CONV
        O_D=      0.0079954 O_OD=      1.7340625 O_TOT=     10.2489532 <-- SPRD
 Delta: O_D= -0.9835451E-02 O_OD= -0.2221728E-01 O_TOT= -0.3205273E-01 <-- DLTA
 ------------------------------------------------------------------------------
 Cycle:     92
  WF centre and spread    1  (  5.346838,  3.802612,  2.688924 )     1.18703292
  WF centre and spread    2  (  5.789181,  3.357516,  1.568966 )     1.11479603
  WF centre and spread    3  (  6.278795,  3.637163,  2.571478 )     1.50599781
  WF centre and spread    4  (  5.790039,  2.598569,  2.642442 )     1.11495919
  WF centre and spread    5  (  3.775709,  1.743893,  1.233109 )     1.29664606
  WF centre and spread    6  (  3.864414,  2.220207,  2.380622 )     1.10308789
  WF centre and spread    7  (  3.964154,  1.981712,  1.401580 )     1.79238071
  WF centre and spread    8  (  3.864510,  2.984469,  1.299949 )     1.10324159
  Sum of centres and spreads ( 38.673639, 22.326141, 15.787070 )    10.21814220
 
     92    -0.308E-01     0.1088450636       10.2181422026      11.69  <-- CONV
        O_D=      0.0048593 O_OD=      1.7063876 O_TOT=     10.2181422 <-- SPRD
 Delta: O_D= -0.3136049E-02 O_OD= -0.2767496E-01 O_TOT= -0.3081101E-01 <-- DLTA
 ------------------------------------------------------------------------------
 Cycle:     93
  WF centre and spread    1  (  5.322154,  3.797593,  2.685361 )     1.17632369
  WF centre and spread    2  (  5.788876,  3.356970,  1.569340 )     1.11839264
  WF centre and spread    3  (  6.304024,  3.642549,  2.575289 )     1.47197945
  WF centre and spread    4  (  5.789733,  2.598745,  2.641800 )     1.11810032
  WF centre and spread    5  (  3.765923,  1.744213,  1.233344 )     1.29598006
  WF centre and spread    6  (  3.864153,  2.220225,  2.380662 )     1.10493763
  WF centre and spread    7  (  3.974555,  1.981344,  1.401324 )     1.79106814
  WF centre and spread    8  (  3.864249,  2.984509,  1.299952 )     1.10464288
  Sum of centres and spreads ( 38.673667, 22.326147, 15.787073 )    10.18142481
 
     93    -0.367E-01     0.1151018936       10.1814248089      11.73  <-- CONV
        O_D=      0.0109262 O_OD=      1.6636033 O_TOT=     10.1814248 <-- SPRD
 Delta: O_D=  0.6066839E-02 O_OD= -0.4278423E-01 O_TOT= -0.3671739E-01 <-- DLTA
 ------------------------------------------------------------------------------
 Cycle:     94
  WF centre and spread    1  (  5.289160,  3.789886,  2.679889 )     1.16341422
  WF centre and spread    2  (  5.788525,  3.356125,  1.569864 )     1.12542537
  WF centre and spread    3  (  6.337540,  3.650795,  2.581132 )     1.42338551
  WF centre and spread    4  (  5.789378,  2.598950,  2.640837 )     1.12462158
  WF centre and spread    5  (  3.751213,  1.744712,  1.233711 )     1.29558814
  WF centre and spread    6  (  3.863770,  2.220289,  2.380777 )     1.10938558
  WF centre and spread    7  (  3.990185,  1.980744,  1.400896 )     1.78945016
  WF centre and spread    8  (  3.863865,  2.984645,  1.299965 )     1.10853432
  Sum of centres and spreads ( 38.673636, 22.326146, 15.787072 )    10.13980488
 
     94    -0.416E-01     0.1156801687       10.1398048810      11.76  <-- CONV
        O_D=      0.0263903 O_OD=      1.6065193 O_TOT=     10.1398049 <-- SPRD
 Delta: O_D=  0.1546415E-01 O_OD= -0.5708408E-01 O_TOT= -0.4161993E-01 <-- DLTA
 ------------------------------------------------------------------------------
 Cycle:     95
  WF centre and spread    1  (  5.255429,  3.780342,  2.673122 )     1.15233190
  WF centre and spread    2  (  5.788250,  3.355119,  1.570651 )     1.13422531
  WF centre and spread    3  (  6.371522,  3.660860,  2.588263 )     1.36859719
  WF centre and spread    4  (  5.789100,  2.599343,  2.639642 )     1.13280446
  WF centre and spread    5  (  3.733438,  1.745412,  1.234212 )     1.29499683
  WF centre and spread    6  (  3.863297,  2.220372,  2.380781 )     1.11516320
  WF centre and spread    7  (  4.009072,  1.979994,  1.400362 )     1.78703961
  WF centre and spread    8  (  3.863389,  2.984690,  1.300027 )     1.11365967
  Sum of centres and spreads ( 38.673496, 22.326131, 15.787060 )    10.09881817
 
     95    -0.410E-01     0.1297343470       10.0988181702      11.79  <-- CONV
        O_D=      0.0354005 O_OD=      1.5565224 O_TOT=     10.0988182 <-- SPRD
 Delta: O_D=  0.9010161E-02 O_OD= -0.4999687E-01 O_TOT= -0.4098671E-01 <-- DLTA
 ------------------------------------------------------------------------------
 Cycle:     96
  WF centre and spread    1  (  5.253358,  3.779707,  2.672680 )     1.14905171
  WF centre and spread    2  (  5.788276,  3.355040,  1.570739 )     1.12865657
  WF centre and spread    3  (  6.373512,  3.661527,  2.588729 )     1.36093198
  WF centre and spread    4  (  5.789128,  2.599410,  2.639524 )     1.12789963
  WF centre and spread    5  (  3.731523,  1.745478,  1.234250 )     1.29217720
  WF centre and spread    6  (  3.863246,  2.220375,  2.380749 )     1.10939485
  WF centre and spread    7  (  4.011103,  1.979937,  1.400330 )     1.78218796
  WF centre and spread    8  (  3.863339,  2.984651,  1.300056 )     1.10856721
  Sum of centres and spreads ( 38.673485, 22.326125, 15.787057 )    10.05886711
 
     96    -0.400E-01     0.1751310126       10.0588671119      11.83  <-- CONV
        O_D=      0.0252340 O_OD=      1.5267378 O_TOT=     10.0588671 <-- SPRD
 Delta: O_D= -0.1016646E-01 O_OD= -0.2978459E-01 O_TOT= -0.3995106E-01 <-- DLTA
 ------------------------------------------------------------------------------
 Cycle:     97
  WF centre and spread    1  (  5.247616,  3.777869,  2.671394 )     1.14520571
  WF centre and spread    2  (  5.788359,  3.354824,  1.571068 )     1.12518310
  WF centre and spread    3  (  6.379003,  3.663432,  2.590072 )     1.34787756
  WF centre and spread    4  (  5.789215,  2.599658,  2.639202 )     1.12489361
  WF centre and spread    5  (  3.726043,  1.745710,  1.234396 )     1.28946836
  WF centre and spread    6  (  3.863105,  2.220383,  2.380580 )     1.10528313
  WF centre and spread    7  (  4.016914,  1.979754,  1.400208 )     1.77728625
  WF centre and spread    8  (  3.863200,  2.984485,  1.300130 )     1.10497357
  Sum of centres and spreads ( 38.673455, 22.326115, 15.787050 )    10.02017130
 
     97    -0.387E-01     0.1258236207       10.0201713037      11.86  <-- CONV
        O_D=      0.0099741 O_OD=      1.5033019 O_TOT=     10.0201713 <-- SPRD
 Delta: O_D= -0.1525992E-01 O_OD= -0.2343589E-01 O_TOT= -0.3869581E-01 <-- DLTA
 ------------------------------------------------------------------------------
 Cycle:     98
  WF centre and spread    1  (  5.239084,  3.775045,  2.669405 )     1.14149040
  WF centre and spread    2  (  5.788504,  3.354476,  1.571410 )     1.12432578
  WF centre and spread    3  (  6.387122,  3.666424,  2.592189 )     1.33084635
  WF centre and spread    4  (  5.789362,  2.599864,  2.638760 )     1.12442709
  WF centre and spread    5  (  3.717381,  1.746077,  1.234643 )     1.28731990
  WF centre and spread    6  (  3.862882,  2.220422,  2.380474 )     1.10341932
  WF centre and spread    7  (  4.026097,  1.979395,  1.399956 )     1.77263951
  WF centre and spread    8  (  3.862981,  2.984397,  1.300203 )     1.10350689
  Sum of centres and spreads ( 38.673412, 22.326100, 15.787041 )     9.98797524
 
     98    -0.322E-01     0.1098243395        9.9879752371      11.90  <-- CONV
        O_D=      0.0041732 O_OD=      1.4769067 O_TOT=      9.9879752 <-- SPRD
 Delta: O_D= -0.5800861E-02 O_OD= -0.2639521E-01 O_TOT= -0.3219607E-01 <-- DLTA
 ------------------------------------------------------------------------------
 Cycle:     99
  WF centre and spread    1  (  5.229887,  3.771851,  2.667145 )     1.13819676
  WF centre and spread    2  (  5.788691,  3.354098,  1.571659 )     1.12573228
  WF centre and spread    3  (  6.395801,  3.669877,  2.594637 )     1.31298594
  WF centre and spread    4  (  5.789549,  2.599979,  2.638319 )     1.12576422
  WF centre and spread    5  (  3.707179,  1.746504,  1.234941 )     1.28526589
  WF centre and spread    6  (  3.862623,  2.220458,  2.380484 )     1.10375340
  WF centre and spread    7  (  4.036908,  1.978902,  1.399606 )     1.76803461
  WF centre and spread    8  (  3.862723,  2.984412,  1.300237 )     1.10377139
  Sum of centres and spreads ( 38.673361, 22.326081, 15.787028 )     9.96350449
 
     99    -0.245E-01     0.1046580454        9.9635044935      11.93  <-- CONV
        O_D=      0.0060543 O_OD=      1.4505549 O_TOT=      9.9635045 <-- SPRD
 Delta: O_D=  0.1881082E-02 O_OD= -0.2635183E-01 O_TOT= -0.2447074E-01 <-- DLTA
 ------------------------------------------------------------------------------
 Cycle:    100
  WF centre and spread    1  (  5.218807,  3.767627,  2.664152 )     1.13541366
  WF centre and spread    2  (  5.788966,  3.353583,  1.572025 )     1.12893226
  WF centre and spread    3  (  6.406141,  3.674394,  2.597841 )     1.29163552
  WF centre and spread    4  (  5.789821,  2.600147,  2.637711 )     1.12853592
  WF centre and spread    5  (  3.693301,  1.747182,  1.235421 )     1.28310291
  WF centre and spread    6  (  3.862273,  2.220538,  2.380457 )     1.10555271
  WF centre and spread    7  (  4.051615,  1.978170,  1.399083 )     1.76235595
  WF centre and spread    8  (  3.862374,  2.984417,  1.300321 )     1.10515346
  Sum of centres and spreads ( 38.673296, 22.326058, 15.787013 )     9.94068239
 
    100    -0.228E-01     0.0945293675        9.9406823928      11.97  <-- CONV
        O_D=      0.0119802 O_OD=      1.4218069 O_TOT=      9.9406824 <-- SPRD
 Delta: O_D=  0.5925895E-02 O_OD= -0.2874800E-01 O_TOT= -0.2282210E-01 <-- DLTA
 ------------------------------------------------------------------------------

 Writing checkpoint file aiida.chk... done

 Final State
  WF centre and spread    1  (  5.218807,  3.767627,  2.664152 )     1.13541366
  WF centre and spread    2  (  5.788966,  3.353583,  1.572025 )     1.12893226
  WF centre and spread    3  (  6.406141,  3.674394,  2.597841 )     1.29163552
  WF centre and spread    4  (  5.789821,  2.600147,  2.637711 )     1.12853592
  WF centre and spread    5  (  3.693301,  1.747182,  1.235421 )     1.28310291
  WF centre and spread    6  (  3.862273,  2.220538,  2.380457 )     1.10555271
  WF centre and spread    7  (  4.051615,  1.978170,  1.399083 )     1.76235595
  WF centre and spread    8  (  3.862374,  2.984417,  1.300321 )     1.10515346
  Sum of centres and spreads ( 38.673296, 22.326058, 15.787013 )     9.94068239
 
         Spreads (Ang^2)       Omega I      =     8.506895310
        ================       Omega D      =     0.011980210
                               Omega OD     =     1.421806873
    Final Spread (Ang^2)       Omega Total  =     9.940682393
 ------------------------------------------------------------------------------
 Time for wannierise            3.414 (sec)

 Writing checkpoint file aiida.chk... done

 Time for plotting              0.000 (sec)
 Total Execution Time          13.288 (sec)

 *===========================================================================*
 |                             TIMING INFORMATION                            |
 *===========================================================================*
 |    Tag                                                Ncalls      Time (s)|
 |---------------------------------------------------------------------------|
 |kmesh: get                                        :         1         0.211|
 |overlap: allocate                                 :         1         0.000|
 |overlap: read                                     :         1         1.085|
 |dis: main                                         :         1         8.515|
 |wann: main                                        :         1         3.414|
 |plot: main                                        :         1         0.000|
 *---------------------------------------------------------------------------*
 
 All done: wannier90 exiting
