 
             +---------------------------------------------------+
             |                                                   |
             |                   WANNIER90                       |
             |                                                   |
             +---------------------------------------------------+
             |                                                   |
             |        Welcome to the Maximally-Localized         |
             |        Generalized Wannier Functions code         |
             |            http://www.wannier.org                 |
             |                                                   |
             |                                                   |
             |  Wannier90 Developer Group:                       |
             |    Giovanni Pizzi    (EPFL)                       |
             |    Valerio Vitale    (Cambridge)                  |
             |    David Vanderbilt  (Rutgers University)         |
             |    Nicola Marzari    (EPFL)                       |
             |    Ivo Souza         (Universidad del Pais Vasco) |
             |    Arash A. Mostofi  (Imperial College London)    |
             |    Jonathan R. Yates (University of Oxford)       |
             |                                                   |
             |  For the full list of Wannier90 3.x authors,      |
             |  please check the code documentation and the      |
             |  README on the GitHub page of the code            |
             |                                                   |
             |                                                   |
             |  Please cite                                      |
             |                                                   |
             |  [ref] "Wannier90 as a community code:            |
             |        new features and applications",            |
             |        G. Pizzi et al., J. Phys. Cond. Matt. 32,  |
             |        165902 (2020).                             |
             |        http://doi.org/10.1088/1361-648X/ab51ff    |
             |                                                   |
             |  in any publications arising from the use of      |
             |  this code. For the method please cite            |
             |                                                   |
             |  [ref] "Maximally Localized Generalised Wannier   |
             |         Functions for Composite Energy Bands"     |
             |         N. Marzari and D. Vanderbilt              |
             |         Phys. Rev. B 56 12847 (1997)              |
             |                                                   |
             |  [ref] "Maximally Localized Wannier Functions     |
             |         for Entangled Energy Bands"               |
             |         I. Souza, N. Marzari and D. Vanderbilt    |
             |         Phys. Rev. B 65 035109 (2001)             |
             |                                                   |
             |                                                   |
             | Copyright (c) 1996-2020                           |
             |        The Wannier90 Developer Group and          |
             |        individual contributors                    |
             |                                                   |
             |      Release: 3.1.0        5th March    2020      |
             |                                                   |
             | This program is free software; you can            |
             | redistribute it and/or modify it under the terms  |
             | of the GNU General Public License as published by |
             | the Free Software Foundation; either version 2 of |
             | the License, or (at your option) any later version|
             |                                                   |
             | This program is distributed in the hope that it   |
             | will be useful, but WITHOUT ANY WARRANTY; without |
             | even the implied warranty of MERCHANTABILITY or   |
             | FITNESS FOR A PARTICULAR PURPOSE. See the GNU     |
             | General Public License for more details.          |
             |                                                   |
             | You should have received a copy of the GNU General|
             | Public License along with this program; if not,   |
             | write to the Free Software Foundation, Inc.,      |
             | 675 Mass Ave, Cambridge, MA 02139, USA.           |
             |                                                   |
             +---------------------------------------------------+
             |    Execution started on 19Apr2025 at 14:40:02     |
             +---------------------------------------------------+
 
 ******************************************************************************
 * -> Using CODATA 2006 constant values                                       *
 *    (http://physics.nist.gov/cuu/Constants/index.html)                      *
 * -> Using Bohr value from CODATA                                            *
 ******************************************************************************
 

 Running in serial (with serial executable)
 
                                    ------
                                    SYSTEM
                                    ------
 
                              Lattice Vectors (Ang)
                    a_1     3.866975   0.000000   0.000000
                    a_2     1.933487   3.348898   0.000000
                    a_3     1.933487   1.116299   3.157372
 
                   Unit Cell Volume:      40.88829  (Ang^3)
 
                        Reciprocal-Space Vectors (Ang^-1)
                    b_1     1.624832  -0.938097  -0.663335
                    b_2     0.000000   1.876195  -0.663335
                    b_3     0.000000   0.000000   1.990005
  
 *----------------------------------------------------------------------------*
 |   Site       Fractional Coordinate          Cartesian Coordinate (Ang)     |
 +----------------------------------------------------------------------------+
 | Si   1   0.75000   0.75000   0.75000   |    5.80046   3.34890   2.36803    |
 | Si   2   0.50000   0.50000   0.50000   |    3.86697   2.23260   1.57869    |
 *----------------------------------------------------------------------------*
                                ------------
                                K-POINT GRID
                                ------------
  
             Grid size =  8 x  8 x  8      Total points =  512
  
  
 *---------------------------------- MAIN ------------------------------------*
 |  Number of Wannier Functions               :                16             |
 |  Number of Objective Wannier Functions     :                16             |
 |  Number of input Bloch states              :                32             |
 |  Output verbosity (1=low, 5=high)          :                 1             |
 |  Timing Level (1=low, 5=high)              :                 1             |
 |  Optimisation (0=memory, 3=speed)          :                 3             |
 |  Length Unit                               :               Ang             |
 |  Post-processing setup (write *.nnkp)      :                 F             |
 |  Using Gamma-only branch of algorithms     :                 F             |
 *----------------------------------------------------------------------------*
 *------------------------------- WANNIERISE ---------------------------------*
 |  Total number of iterations                :               100             |
 |  Number of CG steps before reset           :                 5             |
 |  Trial step length for line search         :             2.000             |
 |  Convergence tolerence                     :         0.100E-09             |
 |  Convergence window                        :                -1             |
 |  Iterations between writing output         :                 1             |
 |  Iterations between backing up to disk     :               100             |
 |  Write r^2_nm to file                      :                 F             |
 |  Write xyz WF centres to file              :                 F             |
 |  Write on-site energies <0n|H|0n> to file  :                 F             |
 |  Use guiding centre to control phases      :                 F             |
 |  Use phases for initial projections        :                 F             |
 *----------------------------------------------------------------------------*
 *------------------------------- DISENTANGLE --------------------------------*
 |  Using band disentanglement                :                 T             |
 |  Total number of iterations                :               200             |
 |  Mixing ratio                              :             0.500             |
 |  Convergence tolerence                     :         1.000E-10             |
 |  Convergence window                        :                 3             |
 *----------------------------------------------------------------------------*
 *-------------------------------- PLOTTING ----------------------------------*
 |  Plotting Hamiltonian in WF basis          :                 T             |
 *----------------------------------------------------------------------------*
 Time to read parameters        0.031 (sec)

 *---------------------------------- K-MESH ----------------------------------*
 +----------------------------------------------------------------------------+
 |                    Distance to Nearest-Neighbour Shells                    |
 |                    ------------------------------------                    |
 |          Shell             Distance (Ang^-1)          Multiplicity         |
 |          -----             -----------------          ------------         |
 |             1                   0.248751                      8            |
 |             2                   0.287232                      6            |
 |             3                   0.406208                     12            |
 |             4                   0.476321                     24            |
 |             5                   0.497501                      8            |
 |             6                   0.574465                      6            |
 |             7                   0.626009                     24            |
 |             8                   0.642271                     24            |
 |             9                   0.703573                     24            |
 |            10                   0.746252                     32            |
 |            11                   0.812416                     12            |
 |            12                   0.849645                     48            |
 |            13                   0.861697                     30            |
 |            14                   0.908309                     24            |
 |            15                   0.941755                     24            |
 |            16                   0.952642                     24            |
 |            17                   0.995003                      8            |
 |            18                   1.025625                     48            |
 |            19                   1.035631                     24            |
 |            20                   1.074726                     48            |
 |            21                   1.103137                     72            |
 |            22                   1.148930                      6            |
 |            23                   1.175550                     24            |
 |            24                   1.184290                     48            |
 |            25                   1.218624                     36            |
 |            26                   1.243753                     56            |
 |            27                   1.252017                     24            |
 |            28                   1.284543                     24            |
 |            29                   1.308406                     72            |
 |            30                   1.316265                     48            |
 |            31                   1.347240                     24            |
 |            32                   1.370012                     48            |
 |            33                   1.407146                     24            |
 |            34                   1.428964                     72            |
 |            35                   1.436162                     30            |
 |            36                   1.464604                     72            |
 +----------------------------------------------------------------------------+
 | The b-vectors are chosen automatically                                     |
 | The following shells are used:   1                                         |
 +----------------------------------------------------------------------------+
 |                        Shell   # Nearest-Neighbours                        |
 |                        -----   --------------------                        |
 |                          1               8                                 |
 +----------------------------------------------------------------------------+
 | Completeness relation is fully satisfied [Eq. (B1), PRB 56, 12847 (1997)]  |
 +----------------------------------------------------------------------------+
 |                  b_k Vectors (Ang^-1) and Weights (Ang^2)                  |
 |                  ----------------------------------------                  |
 |            No.         b_k(x)      b_k(y)      b_k(z)        w_b           |
 |            ---        --------------------------------     --------        |
 |             1         0.000000    0.000000    0.248751     6.060422        |
 |             2         0.000000    0.234524   -0.082917     6.060422        |
 |             3         0.203104   -0.117262   -0.082917     6.060422        |
 |             4         0.203104    0.117262    0.082917     6.060422        |
 |             5         0.000000    0.000000   -0.248751     6.060422        |
 |             6         0.000000   -0.234524    0.082917     6.060422        |
 |             7        -0.203104    0.117262    0.082917     6.060422        |
 |             8        -0.203104   -0.117262   -0.082917     6.060422        |
 +----------------------------------------------------------------------------+
 |                           b_k Directions (Ang^-1)                          |
 |                           -----------------------                          |
 |            No.           x           y           z                         |
 |            ---        --------------------------------                     |
 |             1         0.000000    0.000000    0.248751                     |
 |             2         0.000000    0.234524   -0.082917                     |
 |             3         0.203104   -0.117262   -0.082917                     |
 |             4         0.203104    0.117262    0.082917                     |
 +----------------------------------------------------------------------------+
  
 Time to get kmesh              0.155 (sec)
 *============================================================================*
 |                              MEMORY ESTIMATE                               |
 |         Maximum RAM allocated during each phase of the calculation         |
 *============================================================================*
 |                        Disentanglement           90.65 Mb                  |
 |                            Wannierise:           46.86 Mb                  |
 |                          plot_wannier:           46.86 Mb                  |
 *----------------------------------------------------------------------------*
  
 Starting a new Wannier90 calculation ...


 Reading overlaps from aiida.mmn    :  Created on 19Apr2025 at 14:39:23

 Reading projections from aiida.amn :  Created on 19Apr2025 at 14:39:17

 Time to read overlaps          2.567 (sec)

 *------------------------------- DISENTANGLE --------------------------------*
 +----------------------------------------------------------------------------+
 |                              Energy  Windows                               |
 |                              ---------------                               |
 |                   Outer:   -5.79559  to   29.13182  (eV)                   |
 |                   Inner:   -5.79559  to    7.06337  (eV)                   |
 +----------------------------------------------------------------------------+
   Number of target bands to extract:   16

                   Unitarised projection of Wannier functions                  
                   ------------------------------------------                  
   A_mn = <psi_m|g_n> --> S = A.A^+ --> U = S^-1/2.A
   In dis_project... done
   Using an inner window (linner = T)
   In dis_proj_froz... done

                   Extraction of optimally-connected subspace                  
                   ------------------------------------------                  
 +---------------------------------------------------------------------+<-- DIS
 |  Iter     Omega_I(i-1)      Omega_I(i)      Delta (frac.)    Time   |<-- DIS
 +---------------------------------------------------------------------+<-- DIS
       1      30.24630939      26.34529312       1.481E-01      0.00    <-- DIS
       2      27.57431875      25.19647704       9.437E-02      0.12    <-- DIS
       3      26.15066512      24.41428363       7.112E-02      0.24    <-- DIS
       4      25.08040974      23.81484186       5.314E-02      0.35    <-- DIS
       5      24.27611697      23.33865172       4.017E-02      0.47    <-- DIS
       6      23.66022796      22.95127490       3.089E-02      0.59    <-- DIS
       7      23.17796236      22.63050515       2.419E-02      0.71    <-- DIS
       8      22.79212679      22.36121763       1.927E-02      0.83    <-- DIS
       9      22.47750885      22.13267130       1.558E-02      0.95    <-- DIS
      10      22.21679039      21.93697228       1.276E-02      1.07    <-- DIS
      11      21.99782732      21.76815252       1.055E-02      1.18    <-- DIS
      12      21.81189472      21.62159344       8.801E-03      1.30    <-- DIS
      13      21.65256417      21.49365161       7.393E-03      1.42    <-- DIS
      14      21.51498286      21.38140735       6.247E-03      1.54    <-- DIS
      15      21.39540554      21.28249053       5.306E-03      1.66    <-- DIS
      16      21.29088524      21.19495650       4.526E-03      1.78    <-- DIS
      17      21.19906470      21.11719551       3.877E-03      1.90    <-- DIS
      18      21.11803237      21.04786510       3.334E-03      2.02    <-- DIS
      19      21.04622045      20.98583860       2.877E-03      2.14    <-- DIS
      20      20.98233110      20.93016528       2.492E-03      2.26    <-- DIS
      21      20.92528158      20.88003904       2.167E-03      2.37    <-- DIS
      22      20.87416278      20.83477348       1.891E-03      2.49    <-- DIS
      23      20.82820710      20.79378188       1.656E-03      2.61    <-- DIS
      24      20.78676342      20.75656089       1.455E-03      2.73    <-- DIS
      25      20.74927702      20.72267730       1.284E-03      2.85    <-- DIS
      26      20.71527351      20.69175703       1.137E-03      2.97    <-- DIS
      27      20.68434583      20.66347611       1.010E-03      3.09    <-- DIS
      28      20.65614346      20.63755307       9.008E-04      3.21    <-- DIS
      29      20.63036367      20.61374274       8.063E-04      3.33    <-- DIS
      30      20.60674419      20.59183087       7.242E-04      3.45    <-- DIS
      31      20.58505714      20.57162974       6.527E-04      3.56    <-- DIS
      32      20.56510391      20.55297438       5.902E-04      3.68    <-- DIS
      33      20.54671091      20.53571943       5.352E-04      3.80    <-- DIS
      34      20.52972598      20.51973641       4.868E-04      3.92    <-- DIS
      35      20.51401534      20.50491147       4.440E-04      4.04    <-- DIS
      36      20.49946105      20.49114341       4.059E-04      4.16    <-- DIS
      37      20.48595879      20.47834205       3.719E-04      4.28    <-- DIS
      38      20.47341606      20.46642678       3.415E-04      4.40    <-- DIS
      39      20.46175057      20.45532535       3.141E-04      4.52    <-- DIS
      40      20.45088891      20.44497284       2.894E-04      4.64    <-- DIS
      41      20.44076540      20.43531075       2.669E-04      4.76    <-- DIS
      42      20.43132110      20.42628623       2.465E-04      4.88    <-- DIS
      43      20.42250297      20.41785139       2.278E-04      5.00    <-- DIS
      44      20.41426317      20.40996276       2.107E-04      5.12    <-- DIS
      45      20.40655839      20.40258077       1.950E-04      5.24    <-- DIS
      46      20.39934935      20.39566931       1.804E-04      5.36    <-- DIS
      47      20.39260030      20.38919536       1.670E-04      5.48    <-- DIS
      48      20.38627868      20.38312866       1.545E-04      5.60    <-- DIS
      49      20.38035469      20.37744145       1.430E-04      5.72    <-- DIS
      50      20.37480105      20.37210814       1.322E-04      5.84    <-- DIS
      51      20.36959270      20.36710518       1.221E-04      5.96    <-- DIS
      52      20.36470660      20.36241081       1.127E-04      6.08    <-- DIS
      53      20.36012150      20.35800492       1.040E-04      6.20    <-- DIS
      54      20.35581776      20.35386888       9.575E-05      6.32    <-- DIS
      55      20.35177724      20.34998539       8.805E-05      6.44    <-- DIS
      56      20.34798310      20.34633840       8.084E-05      6.56    <-- DIS
      57      20.34441974      20.34291300       7.407E-05      6.68    <-- DIS
      58      20.34107264      20.33969528       6.772E-05      6.80    <-- DIS
      59      20.33792831      20.33667230       6.176E-05      6.93    <-- DIS
      60      20.33497415      20.33383197       5.617E-05      7.04    <-- DIS
      61      20.33219844      20.33116304       5.093E-05      7.17    <-- DIS
      62      20.32959023      20.32865495       4.601E-05      7.28    <-- DIS
      63      20.32713927      20.32629786       4.140E-05      7.40    <-- DIS
      64      20.32483601      20.32408256       3.707E-05      7.52    <-- DIS
      65      20.32267149      20.32200041       3.302E-05      7.65    <-- DIS
      66      20.32063731      20.32004335       2.923E-05      7.77    <-- DIS
      67      20.31872561      20.31820379       2.568E-05      7.89    <-- DIS
      68      20.31692903      20.31647465       2.237E-05      8.01    <-- DIS
      69      20.31524066      20.31484925       1.927E-05      8.13    <-- DIS
      70      20.31365400      20.31332135       1.638E-05      8.25    <-- DIS
      71      20.31216298      20.31188510       1.368E-05      8.37    <-- DIS
      72      20.31076185      20.31053498       1.117E-05      8.49    <-- DIS
      73      20.30944527      20.30926582       8.836E-06      8.60    <-- DIS
      74      20.30820817      20.30807279       6.667E-06      8.72    <-- DIS
      75      20.30704582      20.30695130       4.654E-06      8.84    <-- DIS
      76      20.30595374      20.30589708       2.790E-06      8.96    <-- DIS
      77      20.30492776      20.30490611       1.066E-06      9.08    <-- DIS
      78      20.30396392      20.30397459      -5.256E-07      9.20    <-- DIS
      79      20.30305852      20.30309898      -1.993E-06      9.32    <-- DIS
      80      20.30220807      20.30227592      -3.342E-06      9.44    <-- DIS
      81      20.30140929      20.30150228      -4.580E-06      9.56    <-- DIS
      82      20.30065909      20.30077510      -5.714E-06      9.68    <-- DIS
      83      20.29995457      20.30009159      -6.750E-06      9.80    <-- DIS
      84      20.29929299      20.29944916      -7.693E-06      9.92    <-- DIS
      85      20.29867180      20.29884533      -8.549E-06     10.03    <-- DIS
      86      20.29808856      20.29827781      -9.323E-06     10.15    <-- DIS
      87      20.29754100      20.29774441      -1.002E-05     10.27    <-- DIS
      88      20.29702700      20.29724310      -1.065E-05     10.39    <-- DIS
      89      20.29654452      20.29677196      -1.121E-05     10.51    <-- DIS
      90      20.29609168      20.29632917      -1.170E-05     10.62    <-- DIS
      91      20.29566669      20.29591304      -1.214E-05     10.75    <-- DIS
      92      20.29526789      20.29552197      -1.252E-05     10.86    <-- DIS
      93      20.29489368      20.29515447      -1.285E-05     10.98    <-- DIS
      94      20.29454259      20.29480910      -1.313E-05     11.10    <-- DIS
      95      20.29421322      20.29448456      -1.337E-05     11.22    <-- DIS
      96      20.29390426      20.29417959      -1.357E-05     11.34    <-- DIS
      97      20.29361448      20.29389300      -1.372E-05     11.46    <-- DIS
      98      20.29334271      20.29362371      -1.385E-05     11.57    <-- DIS
      99      20.29308786      20.29337067      -1.394E-05     11.69    <-- DIS
     100      20.29284891      20.29313291      -1.399E-05     11.81    <-- DIS
     101      20.29262488      20.29290950      -1.403E-05     11.93    <-- DIS
     102      20.29241488      20.29269958      -1.403E-05     12.05    <-- DIS
     103      20.29221804      20.29250235      -1.401E-05     12.17    <-- DIS
     104      20.29203356      20.29231703      -1.397E-05     12.29    <-- DIS
     105      20.29186069      20.29214291      -1.391E-05     12.41    <-- DIS
     106      20.29169873      20.29197932      -1.383E-05     12.53    <-- DIS
     107      20.29154699      20.29182563      -1.373E-05     12.65    <-- DIS
     108      20.29140486      20.29168122      -1.362E-05     12.76    <-- DIS
     109      20.29127175      20.29154556      -1.349E-05     12.88    <-- DIS
     110      20.29114709      20.29141810      -1.336E-05     13.00    <-- DIS
     111      20.29103038      20.29129836      -1.321E-05     13.12    <-- DIS
     112      20.29092113      20.29118587      -1.305E-05     13.24    <-- DIS
     113      20.29081886      20.29108019      -1.288E-05     13.36    <-- DIS
     114      20.29072316      20.29098091      -1.270E-05     13.48    <-- DIS
     115      20.29063361      20.29088764      -1.252E-05     13.60    <-- DIS
     116      20.29054983      20.29080002      -1.233E-05     13.72    <-- DIS
     117      20.29047148      20.29071771      -1.214E-05     13.84    <-- DIS
     118      20.29039820      20.29064039      -1.194E-05     13.96    <-- DIS
     119      20.29032968      20.29056776      -1.173E-05     14.07    <-- DIS
     120      20.29026563      20.29049953      -1.153E-05     14.19    <-- DIS
     121      20.29020577      20.29043544      -1.132E-05     14.31    <-- DIS
     122      20.29014984      20.29037524      -1.111E-05     14.43    <-- DIS
     123      20.29009759      20.29031868      -1.090E-05     14.55    <-- DIS
     124      20.29004878      20.29026556      -1.068E-05     14.67    <-- DIS
     125      20.29000321      20.29021566      -1.047E-05     14.78    <-- DIS
     126      20.28996067      20.29016879      -1.026E-05     14.91    <-- DIS
     127      20.28992097      20.29012476      -1.004E-05     15.02    <-- DIS
     128      20.28988393      20.29008341      -9.831E-06     15.14    <-- DIS
     129      20.28984938      20.29004457      -9.620E-06     15.26    <-- DIS
     130      20.28981716      20.29000808      -9.410E-06     15.38    <-- DIS
     131      20.28978713      20.28997381      -9.201E-06     15.50    <-- DIS
     132      20.28975914      20.28994162      -8.994E-06     15.62    <-- DIS
     133      20.28973307      20.28991139      -8.788E-06     15.74    <-- DIS
     134      20.28970879      20.28988299      -8.585E-06     15.86    <-- DIS
     135      20.28968619      20.28985632      -8.385E-06     15.97    <-- DIS
     136      20.28966517      20.28983127      -8.186E-06     16.09    <-- DIS
     137      20.28964561      20.28980774      -7.991E-06     16.21    <-- DIS
     138      20.28962742      20.28978564      -7.798E-06     16.33    <-- DIS
     139      20.28961052      20.28976488      -7.608E-06     16.45    <-- DIS
     140      20.28959483      20.28974538      -7.420E-06     16.57    <-- DIS
     141      20.28958026      20.28972707      -7.236E-06     16.69    <-- DIS
     142      20.28956673      20.28970988      -7.055E-06     16.80    <-- DIS
     143      20.28955420      20.28969373      -6.877E-06     16.92    <-- DIS
     144      20.28954257      20.28967856      -6.702E-06     17.04    <-- DIS
     145      20.28953181      20.28966431      -6.530E-06     17.16    <-- DIS
     146      20.28952185      20.28965093      -6.362E-06     17.28    <-- DIS
     147      20.28951263      20.28963836      -6.197E-06     17.39    <-- DIS
     148      20.28950412      20.28962656      -6.035E-06     17.51    <-- DIS
     149      20.28949625      20.28961547      -5.876E-06     17.63    <-- DIS
     150      20.28948899      20.28960506      -5.721E-06     17.75    <-- DIS
     151      20.28948230      20.28959528      -5.568E-06     17.87    <-- DIS
     152      20.28947614      20.28958610      -5.420E-06     17.99    <-- DIS
     153      20.28947047      20.28957748      -5.274E-06     18.11    <-- DIS
     154      20.28946526      20.28956938      -5.131E-06     18.22    <-- DIS
     155      20.28946048      20.28956177      -4.992E-06     18.34    <-- DIS
     156      20.28945610      20.28955463      -4.856E-06     18.46    <-- DIS
     157      20.28945209      20.28954792      -4.723E-06     18.58    <-- DIS
     158      20.28944843      20.28954162      -4.593E-06     18.70    <-- DIS
     159      20.28944508      20.28953570      -4.466E-06     18.81    <-- DIS
     160      20.28944204      20.28953014      -4.343E-06     18.93    <-- DIS
     161      20.28943927      20.28952492      -4.222E-06     19.05    <-- DIS
     162      20.28943676      20.28952002      -4.104E-06     19.17    <-- DIS
     163      20.28943449      20.28951542      -3.989E-06     19.29    <-- DIS
     164      20.28943244      20.28951110      -3.877E-06     19.41    <-- DIS
     165      20.28943060      20.28950704      -3.767E-06     19.53    <-- DIS
     166      20.28942895      20.28950323      -3.661E-06     19.65    <-- DIS
     167      20.28942748      20.28949965      -3.557E-06     19.76    <-- DIS
     168      20.28942617      20.28949628      -3.456E-06     19.88    <-- DIS
     169      20.28942501      20.28949312      -3.357E-06     20.00    <-- DIS
     170      20.28942399      20.28949016      -3.261E-06     20.12    <-- DIS
     171      20.28942311      20.28948737      -3.168E-06     20.24    <-- DIS
     172      20.28942234      20.28948476      -3.076E-06     20.35    <-- DIS
     173      20.28942168      20.28948230      -2.988E-06     20.47    <-- DIS
     174      20.28942113      20.28948000      -2.901E-06     20.59    <-- DIS
     175      20.28942067      20.28947783      -2.817E-06     20.71    <-- DIS
     176      20.28942029      20.28947580      -2.736E-06     20.83    <-- DIS
     177      20.28941999      20.28947389      -2.656E-06     20.95    <-- DIS
     178      20.28941977      20.28947209      -2.579E-06     21.07    <-- DIS
     179      20.28941961      20.28947041      -2.503E-06     21.19    <-- DIS
     180      20.28941952      20.28946882      -2.430E-06     21.31    <-- DIS
     181      20.28941948      20.28946734      -2.359E-06     21.43    <-- DIS
     182      20.28941949      20.28946594      -2.290E-06     21.55    <-- DIS
     183      20.28941954      20.28946463      -2.222E-06     21.66    <-- DIS
     184      20.28941964      20.28946340      -2.157E-06     21.78    <-- DIS
     185      20.28941977      20.28946225      -2.093E-06     21.91    <-- DIS
     186      20.28941994      20.28946116      -2.031E-06     22.03    <-- DIS
     187      20.28942014      20.28946014      -1.971E-06     22.15    <-- DIS
     188      20.28942037      20.28945919      -1.913E-06     22.29    <-- DIS
     189      20.28942063      20.28945829      -1.856E-06     22.42    <-- DIS
     190      20.28942090      20.28945744      -1.801E-06     22.54    <-- DIS
     191      20.28942120      20.28945665      -1.748E-06     22.67    <-- DIS
     192      20.28942151      20.28945591      -1.695E-06     22.79    <-- DIS
     193      20.28942183      20.28945521      -1.645E-06     22.92    <-- DIS
     194      20.28942217      20.28945455      -1.596E-06     23.05    <-- DIS
     195      20.28942253      20.28945394      -1.548E-06     23.17    <-- DIS
     196      20.28942289      20.28945336      -1.502E-06     23.30    <-- DIS
     197      20.28942326      20.28945281      -1.457E-06     23.42    <-- DIS
     198      20.28942363      20.28945230      -1.413E-06     23.55    <-- DIS
     199      20.28942401      20.28945182      -1.371E-06     23.67    <-- DIS
     200      20.28942440      20.28945137      -1.330E-06     23.80    <-- DIS

     <<< Warning: Maximum number of disentanglement iterations reached >>>
          <<< Disentanglement convergence criteria not satisfied >>>

        Final Omega_I    20.28945137 (Ang^2)

 +----------------------------------------------------------------------------+

 Time to disentangle bands     24.090 (sec)

 Writing checkpoint file aiida.chk... done

 
 *------------------------------- WANNIERISE ---------------------------------*
 +--------------------------------------------------------------------+<-- CONV
 | Iter  Delta Spread     RMS Gradient      Spread (Ang^2)      Time  |<-- CONV
 +--------------------------------------------------------------------+<-- CONV
 
 ------------------------------------------------------------------------------
 Initial State
  WF centre and spread    1  (  5.800461,  3.348898,  2.368029 )     1.76302065
  WF centre and spread    2  (  5.800462,  3.348898,  2.368029 )     1.76302129
  WF centre and spread    3  (  5.800461,  3.348899,  2.148015 )     2.06467367
  WF centre and spread    4  (  5.800463,  3.348896,  2.148012 )     2.06466932
  WF centre and spread    5  (  5.800460,  3.502921,  2.476938 )     2.07675568
  WF centre and spread    6  (  5.800464,  3.502919,  2.476935 )     2.07676257
  WF centre and spread    7  (  5.800459,  3.193293,  2.476915 )     2.07680041
  WF centre and spread    8  (  5.800459,  3.193289,  2.476912 )     2.07679936
  WF centre and spread    9  (  3.866974,  2.232599,  1.578686 )     1.76302119
  WF centre and spread   10  (  3.866975,  2.232598,  1.578685 )     1.76302136
  WF centre and spread   11  (  3.866970,  2.232599,  1.798701 )     2.06467047
  WF centre and spread   12  (  3.866973,  2.232597,  1.798701 )     2.06467518
  WF centre and spread   13  (  3.866971,  2.078579,  1.469779 )     2.07675877
  WF centre and spread   14  (  3.866975,  2.078575,  1.469776 )     2.07675649
  WF centre and spread   15  (  3.866974,  2.388207,  1.469803 )     2.07680257
  WF centre and spread   16  (  3.866980,  2.388202,  1.469801 )     2.07680371
  Sum of centres and spreads ( 77.339480, 44.651968, 31.573717 )    31.92501271
 
      0     0.319E+02     0.0000000000       31.9250127118      24.15  <-- CONV
        O_D=      0.1478516 O_OD=     11.4877098 O_TOT=     31.9250127 <-- SPRD
 ------------------------------------------------------------------------------
 Cycle:      1
  WF centre and spread    1  (  5.800461,  3.353933,  2.375137 )     1.67436546
  WF centre and spread    2  (  5.800462,  3.353933,  2.375137 )     1.67436599
  WF centre and spread    3  (  5.800461,  3.349051,  2.134445 )     2.06526107
  WF centre and spread    4  (  5.800463,  3.349047,  2.134441 )     2.06525681
  WF centre and spread    5  (  5.800460,  3.507200,  2.479945 )     2.08209040
  WF centre and spread    6  (  5.800464,  3.507198,  2.479942 )     2.08209691
  WF centre and spread    7  (  5.800459,  3.183529,  2.479964 )     2.08011837
  WF centre and spread    8  (  5.800458,  3.183525,  2.479961 )     2.08011727
  WF centre and spread    9  (  3.866974,  2.227564,  1.571578 )     1.67436585
  WF centre and spread   10  (  3.866975,  2.227563,  1.571577 )     1.67436592
  WF centre and spread   11  (  3.866969,  2.232447,  1.812272 )     2.06525805
  WF centre and spread   12  (  3.866973,  2.232445,  1.812271 )     2.06526254
  WF centre and spread   13  (  3.866970,  2.074300,  1.466772 )     2.08209296
  WF centre and spread   14  (  3.866975,  2.074296,  1.466769 )     2.08209123
  WF centre and spread   15  (  3.866974,  2.397971,  1.466754 )     2.08012048
  WF centre and spread   16  (  3.866980,  2.397965,  1.466752 )     2.08012137
  Sum of centres and spreads ( 77.339480, 44.651968, 31.573717 )    31.60735068
 
      1    -0.318E+00     0.2450253388       31.6073506822      24.24  <-- CONV
        O_D=      0.1665398 O_OD=     11.1513595 O_TOT=     31.6073507 <-- SPRD
 Delta: O_D=  0.1868823E-01 O_OD= -0.3363503E+00 O_TOT= -0.3176620E+00 <-- DLTA
 ------------------------------------------------------------------------------
 Cycle:      2
  WF centre and spread    1  (  5.800462,  3.365047,  2.390715 )     1.54510236
  WF centre and spread    2  (  5.800462,  3.365047,  2.390715 )     1.54510265
  WF centre and spread    3  (  5.800461,  3.349376,  2.111123 )     2.06664790
  WF centre and spread    4  (  5.800463,  3.349371,  2.111119 )     2.06664404
  WF centre and spread    5  (  5.800460,  3.512518,  2.483691 )     2.09212139
  WF centre and spread    6  (  5.800464,  3.512517,  2.483688 )     2.09212762
  WF centre and spread    7  (  5.800459,  3.166653,  2.483834 )     2.08597308
  WF centre and spread    8  (  5.800458,  3.166648,  2.483830 )     2.08597178
  WF centre and spread    9  (  3.866975,  2.216450,  1.556000 )     1.54510252
  WF centre and spread   10  (  3.866975,  2.216450,  1.556000 )     1.54510242
  WF centre and spread   11  (  3.866969,  2.232122,  1.835594 )     2.06664503
  WF centre and spread   12  (  3.866973,  2.232121,  1.835593 )     2.06664942
  WF centre and spread   13  (  3.866970,  2.068981,  1.463026 )     2.09212312
  WF centre and spread   14  (  3.866975,  2.068978,  1.463023 )     2.09212237
  WF centre and spread   15  (  3.866974,  2.414847,  1.462885 )     2.08597521
  WF centre and spread   16  (  3.866980,  2.414841,  1.462883 )     2.08597555
  Sum of centres and spreads ( 77.339480, 44.651968, 31.573717 )    31.15938644
 
      2    -0.448E+00     0.3565776866       31.1593864429      24.31  <-- CONV
        O_D=      0.1737800 O_OD=     10.6961551 O_TOT=     31.1593864 <-- SPRD
 Delta: O_D=  0.7240188E-02 O_OD= -0.4552044E+00 O_TOT= -0.4479642E+00 <-- DLTA
 ------------------------------------------------------------------------------
 Cycle:      3
  WF centre and spread    1  (  5.800462,  3.371295,  2.399394 )     1.50036747
  WF centre and spread    2  (  5.800462,  3.371296,  2.399394 )     1.50036777
  WF centre and spread    3  (  5.800461,  3.349531,  2.100774 )     2.06482650
  WF centre and spread    4  (  5.800463,  3.349527,  2.100770 )     2.06482274
  WF centre and spread    5  (  5.800460,  3.513719,  2.484538 )     2.09474366
  WF centre and spread    6  (  5.800464,  3.513717,  2.484535 )     2.09474931
  WF centre and spread    7  (  5.800459,  3.159105,  2.484758 )     2.08624697
  WF centre and spread    8  (  5.800458,  3.159099,  2.484755 )     2.08624567
  WF centre and spread    9  (  3.866975,  2.210202,  1.547321 )     1.50036757
  WF centre and spread   10  (  3.866975,  2.210202,  1.547321 )     1.50036755
  WF centre and spread   11  (  3.866969,  2.231967,  1.845943 )     2.06482384
  WF centre and spread   12  (  3.866973,  2.231965,  1.845942 )     2.06482791
  WF centre and spread   13  (  3.866970,  2.067781,  1.462179 )     2.09474507
  WF centre and spread   14  (  3.866975,  2.067777,  1.462176 )     2.09474461
  WF centre and spread   15  (  3.866974,  2.422396,  1.461960 )     2.08624883
  WF centre and spread   16  (  3.866980,  2.422390,  1.461958 )     2.08624933
  Sum of centres and spreads ( 77.339480, 44.651968, 31.573717 )    30.98474479
 
      3    -0.175E+00     0.3441704882       30.9847447894      24.39  <-- CONV
        O_D=      0.1692941 O_OD=     10.5259993 O_TOT=     30.9847448 <-- SPRD
 Delta: O_D= -0.4485868E-02 O_OD= -0.1701558E+00 O_TOT= -0.1746417E+00 <-- DLTA
 ------------------------------------------------------------------------------
 Cycle:      4
  WF centre and spread    1  (  5.800462,  3.376630,  2.406728 )     1.48466651
  WF centre and spread    2  (  5.800462,  3.376631,  2.406728 )     1.48466679
  WF centre and spread    3  (  5.800461,  3.349635,  2.092960 )     2.06229117
  WF centre and spread    4  (  5.800463,  3.349631,  2.092955 )     2.06228740
  WF centre and spread    5  (  5.800460,  3.514007,  2.484744 )     2.09618553
  WF centre and spread    6  (  5.800464,  3.514005,  2.484741 )     2.09619099
  WF centre and spread    7  (  5.800459,  3.153353,  2.485015 )     2.08548725
  WF centre and spread    8  (  5.800458,  3.153347,  2.485011 )     2.08548584
  WF centre and spread    9  (  3.866975,  2.204866,  1.539987 )     1.48466660
  WF centre and spread   10  (  3.866974,  2.204867,  1.539986 )     1.48466657
  WF centre and spread   11  (  3.866969,  2.231863,  1.853757 )     2.06228852
  WF centre and spread   12  (  3.866973,  2.231861,  1.853757 )     2.06229252
  WF centre and spread   13  (  3.866970,  2.067493,  1.461973 )     2.09618687
  WF centre and spread   14  (  3.866975,  2.067489,  1.461970 )     2.09618655
  WF centre and spread   15  (  3.866974,  2.428148,  1.461704 )     2.08548892
  WF centre and spread   16  (  3.866980,  2.428142,  1.461702 )     2.08548946
  Sum of centres and spreads ( 77.339480, 44.651968, 31.573717 )    30.91452749
 
      4    -0.702E-01     0.1816625012       30.9145274925      24.46  <-- CONV
        O_D=      0.1651282 O_OD=     10.4599479 O_TOT=     30.9145275 <-- SPRD
 Delta: O_D= -0.4165897E-02 O_OD= -0.6605140E-01 O_TOT= -0.7021730E-01 <-- DLTA
 ------------------------------------------------------------------------------
 Cycle:      5
  WF centre and spread    1  (  5.800462,  3.382532,  2.414768 )     1.47826218
  WF centre and spread    2  (  5.800462,  3.382533,  2.414769 )     1.47826247
  WF centre and spread    3  (  5.800461,  3.349722,  2.084681 )     2.05907486
  WF centre and spread    4  (  5.800463,  3.349718,  2.084676 )     2.05907100
  WF centre and spread    5  (  5.800460,  3.514052,  2.484778 )     2.09763871
  WF centre and spread    6  (  5.800464,  3.514050,  2.484775 )     2.09764406
  WF centre and spread    7  (  5.800459,  3.147220,  2.485099 )     2.08435109
  WF centre and spread    8  (  5.800458,  3.147215,  2.485096 )     2.08434958
  WF centre and spread    9  (  3.866975,  2.198964,  1.531947 )     1.47826225
  WF centre and spread   10  (  3.866974,  2.198965,  1.531946 )     1.47826222
  WF centre and spread   11  (  3.866969,  2.231776,  1.862036 )     2.05907216
  WF centre and spread   12  (  3.866973,  2.231774,  1.862035 )     2.05907610
  WF centre and spread   13  (  3.866970,  2.067448,  1.461939 )     2.09763994
  WF centre and spread   14  (  3.866975,  2.067444,  1.461936 )     2.09763976
  WF centre and spread   15  (  3.866974,  2.434280,  1.461619 )     2.08435268
  WF centre and spread   16  (  3.866980,  2.434274,  1.461617 )     2.08435330
  Sum of centres and spreads ( 77.339480, 44.651968, 31.573717 )    30.87731238
 
      5    -0.372E-01     0.1299044698       30.8773123863      24.54  <-- CONV
        O_D=      0.1617474 O_OD=     10.4261136 O_TOT=     30.8773124 <-- SPRD
 Delta: O_D= -0.3380821E-02 O_OD= -0.3383429E-01 O_TOT= -0.3721511E-01 <-- DLTA
 ------------------------------------------------------------------------------
 Cycle:      6
  WF centre and spread    1  (  5.800462,  3.395847,  2.432709 )     1.47305625
  WF centre and spread    2  (  5.800462,  3.395848,  2.432709 )     1.47305658
  WF centre and spread    3  (  5.800461,  3.349849,  2.066257 )     2.05137001
  WF centre and spread    4  (  5.800463,  3.349845,  2.066252 )     2.05136586
  WF centre and spread    5  (  5.800460,  3.514020,  2.484760 )     2.10102424
  WF centre and spread    6  (  5.800465,  3.514019,  2.484757 )     2.10102947
  WF centre and spread    7  (  5.800459,  3.133501,  2.485211 )     2.08158706
  WF centre and spread    8  (  5.800458,  3.133495,  2.485208 )     2.08158523
  WF centre and spread    9  (  3.866976,  2.185649,  1.514006 )     1.47305634
  WF centre and spread   10  (  3.866974,  2.185650,  1.514005 )     1.47305623
  WF centre and spread   11  (  3.866969,  2.231649,  1.880460 )     2.05136719
  WF centre and spread   12  (  3.866973,  2.231647,  1.880459 )     2.05137103
  WF centre and spread   13  (  3.866969,  2.067479,  1.461957 )     2.10102529
  WF centre and spread   14  (  3.866975,  2.067475,  1.461954 )     2.10102534
  WF centre and spread   15  (  3.866974,  2.448000,  1.461507 )     2.08158844
  WF centre and spread   16  (  3.866980,  2.447994,  1.461505 )     2.08158933
  Sum of centres and spreads ( 77.339480, 44.651968, 31.573717 )    30.82815389
 
      6    -0.492E-01     0.1145562272       30.8281538883      24.61  <-- CONV
        O_D=      0.1593979 O_OD=     10.3793046 O_TOT=     30.8281539 <-- SPRD
 Delta: O_D= -0.2349499E-02 O_OD= -0.4680900E-01 O_TOT= -0.4915850E-01 <-- DLTA
 ------------------------------------------------------------------------------
 Cycle:      7
  WF centre and spread    1  (  5.800462,  3.398144,  2.435741 )     1.47194459
  WF centre and spread    2  (  5.800461,  3.398145,  2.435742 )     1.47194493
  WF centre and spread    3  (  5.800461,  3.349863,  2.063135 )     2.04762820
  WF centre and spread    4  (  5.800463,  3.349859,  2.063131 )     2.04762398
  WF centre and spread    5  (  5.800460,  3.514015,  2.484757 )     2.09923453
  WF centre and spread    6  (  5.800465,  3.514014,  2.484754 )     2.09923972
  WF centre and spread    7  (  5.800459,  3.131137,  2.485232 )     2.07872684
  WF centre and spread    8  (  5.800458,  3.131131,  2.485228 )     2.07872495
  WF centre and spread    9  (  3.866976,  2.183352,  1.510973 )     1.47194467
  WF centre and spread   10  (  3.866974,  2.183353,  1.510973 )     1.47194456
  WF centre and spread   11  (  3.866969,  2.231635,  1.883581 )     2.04762535
  WF centre and spread   12  (  3.866973,  2.231633,  1.883581 )     2.04762919
  WF centre and spread   13  (  3.866969,  2.067484,  1.461960 )     2.09923555
  WF centre and spread   14  (  3.866975,  2.067480,  1.461957 )     2.09923563
  WF centre and spread   15  (  3.866974,  2.450364,  1.461487 )     2.07872821
  WF centre and spread   16  (  3.866980,  2.450357,  1.461485 )     2.07872911
  Sum of centres and spreads ( 77.339480, 44.651968, 31.573717 )    30.79014001
 
      7    -0.380E-01     0.1649416595       30.7901400130      24.68  <-- CONV
        O_D=      0.1566199 O_OD=     10.3440687 O_TOT=     30.7901400 <-- SPRD
 Delta: O_D= -0.2778012E-02 O_OD= -0.3523586E-01 O_TOT= -0.3801388E-01 <-- DLTA
 ------------------------------------------------------------------------------
 Cycle:      8
  WF centre and spread    1  (  5.800462,  3.406286,  2.446435 )     1.47382918
  WF centre and spread    2  (  5.800461,  3.406287,  2.446436 )     1.47382955
  WF centre and spread    3  (  5.800461,  3.349895,  2.052185 )     2.03975131
  WF centre and spread    4  (  5.800463,  3.349891,  2.052180 )     2.03974685
  WF centre and spread    5  (  5.800460,  3.513973,  2.484729 )     2.09844562
  WF centre and spread    6  (  5.800465,  3.513971,  2.484726 )     2.09845075
  WF centre and spread    7  (  5.800459,  3.122824,  2.485297 )     2.07402790
  WF centre and spread    8  (  5.800458,  3.122817,  2.485294 )     2.07402579
  WF centre and spread    9  (  3.866976,  2.175210,  1.500280 )     1.47382926
  WF centre and spread   10  (  3.866974,  2.175211,  1.500279 )     1.47382912
  WF centre and spread   11  (  3.866969,  2.231603,  1.894532 )     2.03974841
  WF centre and spread   12  (  3.866973,  2.231601,  1.894531 )     2.03975222
  WF centre and spread   13  (  3.866969,  2.067527,  1.461988 )     2.09844660
  WF centre and spread   14  (  3.866975,  2.067523,  1.461985 )     2.09844674
  WF centre and spread   15  (  3.866974,  2.458677,  1.461421 )     2.07402912
  WF centre and spread   16  (  3.866980,  2.458671,  1.461419 )     2.07403023
  Sum of centres and spreads ( 77.339480, 44.651968, 31.573717 )    30.74421865
 
      8    -0.459E-01     0.1197184330       30.7442186523      24.75  <-- CONV
        O_D=      0.1567381 O_OD=     10.2980292 O_TOT=     30.7442187 <-- SPRD
 Delta: O_D=  0.1182030E-03 O_OD= -0.4603956E-01 O_TOT= -0.4592136E-01 <-- DLTA
 ------------------------------------------------------------------------------
 Cycle:      9
  WF centre and spread    1  (  5.800462,  3.431831,  2.479502 )     1.48411287
  WF centre and spread    2  (  5.800461,  3.431833,  2.479503 )     1.48411331
  WF centre and spread    3  (  5.800461,  3.349862,  2.018513 )     2.01653871
  WF centre and spread    4  (  5.800463,  3.349857,  2.018508 )     2.01653346
  WF centre and spread    5  (  5.800460,  3.513745,  2.484575 )     2.09935908
  WF centre and spread    6  (  5.800465,  3.513743,  2.484572 )     2.09936445
  WF centre and spread    7  (  5.800459,  3.097081,  2.485537 )     2.06152932
  WF centre and spread    8  (  5.800458,  3.097074,  2.485534 )     2.06152641
  WF centre and spread    9  (  3.866977,  2.149665,  1.467213 )     1.48411298
  WF centre and spread   10  (  3.866974,  2.149667,  1.467212 )     1.48411273
  WF centre and spread   11  (  3.866969,  2.231636,  1.928204 )     2.01653555
  WF centre and spread   12  (  3.866973,  2.231635,  1.928203 )     2.01653921
  WF centre and spread   13  (  3.866968,  2.067755,  1.462142 )     2.09936000
  WF centre and spread   14  (  3.866975,  2.067751,  1.462139 )     2.09936026
  WF centre and spread   15  (  3.866974,  2.484421,  1.461181 )     2.06153005
  WF centre and spread   16  (  3.866980,  2.484414,  1.461179 )     2.06153204
  Sum of centres and spreads ( 77.339480, 44.651968, 31.573717 )    30.64616043
 
      9    -0.981E-01     0.1467833375       30.6461604362      24.82  <-- CONV
        O_D=      0.1597334 O_OD=     10.1969757 O_TOT=     30.6461604 <-- SPRD
 Delta: O_D=  0.2995309E-02 O_OD= -0.1010535E+00 O_TOT= -0.9805822E-01 <-- DLTA
 ------------------------------------------------------------------------------
 Cycle:     10
  WF centre and spread    1  (  5.800464,  3.582020,  2.660668 )     1.56912180
  WF centre and spread    2  (  5.800459,  3.582025,  2.660671 )     1.56912400
  WF centre and spread    3  (  5.800461,  3.348267,  1.833430 )     1.85916670
  WF centre and spread    4  (  5.800463,  3.348262,  1.833423 )     1.85915607
  WF centre and spread    5  (  5.800458,  3.511026,  2.482704 )     2.13910496
  WF centre and spread    6  (  5.800467,  3.511024,  2.482700 )     2.13911198
  WF centre and spread    7  (  5.800459,  2.949891,  2.490948 )     1.98622905
  WF centre and spread    8  (  5.800459,  2.949881,  2.490945 )     1.98622066
  WF centre and spread    9  (  3.866981,  1.999473,  1.286046 )     1.56912382
  WF centre and spread   10  (  3.866974,  1.999478,  1.286044 )     1.56912067
  WF centre and spread   11  (  3.866970,  2.233232,  2.113288 )     1.85916062
  WF centre and spread   12  (  3.866973,  2.233230,  2.113288 )     1.85916478
  WF centre and spread   13  (  3.866964,  2.070474,  1.464014 )     2.13910502
  WF centre and spread   14  (  3.866976,  2.070470,  1.464011 )     2.13910638
  WF centre and spread   15  (  3.866974,  2.631612,  1.455770 )     1.98622495
  WF centre and spread   16  (  3.866980,  2.631602,  1.455768 )     1.98623464
  Sum of centres and spreads ( 77.339480, 44.651968, 31.573717 )    30.21447610
 
     10    -0.432E+00     0.2386669550       30.2144761021      24.90  <-- CONV
        O_D=      0.2080521 O_OD=      9.7169726 O_TOT=     30.2144761 <-- SPRD
 Delta: O_D=  0.4831868E-01 O_OD= -0.4800030E+00 O_TOT= -0.4316843E+00 <-- DLTA
 ------------------------------------------------------------------------------
 Cycle:     11
  WF centre and spread    1  (  5.800464,  3.585849,  2.664236 )     1.51021459
  WF centre and spread    2  (  5.800459,  3.585855,  2.664239 )     1.51021611
  WF centre and spread    3  (  5.800461,  3.348292,  1.829025 )     1.81688757
  WF centre and spread    4  (  5.800463,  3.348288,  1.829018 )     1.81687734
  WF centre and spread    5  (  5.800458,  3.511378,  2.482958 )     2.10195959
  WF centre and spread    6  (  5.800467,  3.511376,  2.482955 )     2.10196527
  WF centre and spread    7  (  5.800459,  2.945663,  2.491532 )     1.94561418
  WF centre and spread    8  (  5.800459,  2.945653,  2.491529 )     1.94560526
  WF centre and spread    9  (  3.866981,  1.995644,  1.282478 )     1.51021562
  WF centre and spread   10  (  3.866974,  1.995649,  1.282477 )     1.51021368
  WF centre and spread   11  (  3.866969,  2.233206,  2.117693 )     1.81688182
  WF centre and spread   12  (  3.866973,  2.233204,  2.117693 )     1.81688586
  WF centre and spread   13  (  3.866964,  2.070122,  1.463759 )     2.10195997
  WF centre and spread   14  (  3.866976,  2.070118,  1.463756 )     2.10196088
  WF centre and spread   15  (  3.866974,  2.635840,  1.455186 )     1.94561063
  WF centre and spread   16  (  3.866980,  2.635830,  1.455184 )     1.94561957
  Sum of centres and spreads ( 77.339480, 44.651968, 31.573717 )    29.49868795
 
     11    -0.716E+00     0.7644570655       29.4986879547      24.97  <-- CONV
        O_D=      0.1463631 O_OD=      9.0628735 O_TOT=     29.4986880 <-- SPRD
 Delta: O_D= -0.6168896E-01 O_OD= -0.6540992E+00 O_TOT= -0.7157881E+00 <-- DLTA
 ------------------------------------------------------------------------------
 Cycle:     12
  WF centre and spread    1  (  5.800464,  3.594397,  2.672100 )     1.47117544
  WF centre and spread    2  (  5.800459,  3.594402,  2.672103 )     1.47117641
  WF centre and spread    3  (  5.800461,  3.348337,  1.819637 )     1.79367720
  WF centre and spread    4  (  5.800463,  3.348332,  1.819631 )     1.79366791
  WF centre and spread    5  (  5.800458,  3.511875,  2.483308 )     2.08972870
  WF centre and spread    6  (  5.800467,  3.511873,  2.483304 )     2.08973321
  WF centre and spread    7  (  5.800459,  2.936495,  2.492667 )     1.92567138
  WF centre and spread    8  (  5.800459,  2.936485,  2.492664 )     1.92566224
  WF centre and spread    9  (  3.866981,  1.987096,  1.274614 )     1.47117602
  WF centre and spread   10  (  3.866974,  1.987101,  1.274613 )     1.47117454
  WF centre and spread   11  (  3.866969,  2.233162,  2.127080 )     1.79367210
  WF centre and spread   12  (  3.866973,  2.233160,  2.127080 )     1.79367596
  WF centre and spread   13  (  3.866964,  2.069625,  1.463410 )     2.08972912
  WF centre and spread   14  (  3.866976,  2.069621,  1.463407 )     2.08972992
  WF centre and spread   15  (  3.866974,  2.645009,  1.454051 )     1.92566767
  WF centre and spread   16  (  3.866980,  2.644999,  1.454049 )     1.92567638
  Sum of centres and spreads ( 77.339480, 44.651968, 31.573717 )    29.12099419
 
     12    -0.378E+00     0.4227799768       29.1209941939      25.04  <-- CONV
        O_D=      0.1351901 O_OD=      8.6963527 O_TOT=     29.1209942 <-- SPRD
 Delta: O_D= -0.1117298E-01 O_OD= -0.3665208E+00 O_TOT= -0.3776938E+00 <-- DLTA
 ------------------------------------------------------------------------------
 Cycle:     13
  WF centre and spread    1  (  5.800465,  3.606362,  2.682875 )     1.44931770
  WF centre and spread    2  (  5.800458,  3.606367,  2.682877 )     1.44931872
  WF centre and spread    3  (  5.800461,  3.348442,  1.806923 )     1.77722421
  WF centre and spread    4  (  5.800463,  3.348437,  1.806917 )     1.77721682
  WF centre and spread    5  (  5.800458,  3.512360,  2.483644 )     2.08911237
  WF centre and spread    6  (  5.800467,  3.512359,  2.483641 )     2.08911636
  WF centre and spread    7  (  5.800459,  2.923811,  2.494200 )     1.91365175
  WF centre and spread    8  (  5.800459,  2.923801,  2.494197 )     1.91364173
  WF centre and spread    9  (  3.866982,  1.975131,  1.263839 )     1.44931860
  WF centre and spread   10  (  3.866974,  1.975136,  1.263838 )     1.44931669
  WF centre and spread   11  (  3.866969,  2.233057,  2.139794 )     1.77721908
  WF centre and spread   12  (  3.866973,  2.233055,  2.139794 )     1.77722456
  WF centre and spread   13  (  3.866963,  2.069139,  1.463073 )     2.08911202
  WF centre and spread   14  (  3.866976,  2.069135,  1.463070 )     2.08911316
  WF centre and spread   15  (  3.866974,  2.657692,  1.452518 )     1.91364732
  WF centre and spread   16  (  3.866980,  2.657682,  1.452516 )     1.91365700
  Sum of centres and spreads ( 77.339480, 44.651968, 31.573717 )    28.91720809
 
     13    -0.204E+00     0.2905174565       28.9172080898      25.12  <-- CONV
        O_D=      0.1310463 O_OD=      8.4967104 O_TOT=     28.9172081 <-- SPRD
 Delta: O_D= -0.4143815E-02 O_OD= -0.1996423E+00 O_TOT= -0.2037861E+00 <-- DLTA
 ------------------------------------------------------------------------------
 Cycle:     14
  WF centre and spread    1  (  5.800465,  3.624547,  2.698804 )     1.42852275
  WF centre and spread    2  (  5.800458,  3.624552,  2.698807 )     1.42852399
  WF centre and spread    3  (  5.800461,  3.348737,  1.788026 )     1.75870884
  WF centre and spread    4  (  5.800463,  3.348732,  1.788020 )     1.75870464
  WF centre and spread    5  (  5.800457,  3.513000,  2.484084 )     2.09530793
  WF centre and spread    6  (  5.800468,  3.512998,  2.484081 )     2.09531121
  WF centre and spread    7  (  5.800459,  2.904533,  2.496677 )     1.90140270
  WF centre and spread    8  (  5.800459,  2.904522,  2.496674 )     1.90139112
  WF centre and spread    9  (  3.866982,  1.956947,  1.247910 )     1.42852396
  WF centre and spread   10  (  3.866974,  1.956952,  1.247909 )     1.42852165
  WF centre and spread   11  (  3.866969,  2.232762,  2.158691 )     1.75870392
  WF centre and spread   12  (  3.866973,  2.232760,  2.158691 )     1.75871207
  WF centre and spread   13  (  3.866962,  2.068500,  1.462633 )     2.09530660
  WF centre and spread   14  (  3.866976,  2.068496,  1.462630 )     2.09530841
  WF centre and spread   15  (  3.866974,  2.676971,  1.450041 )     1.90139676
  WF centre and spread   16  (  3.866980,  2.676961,  1.450039 )     1.90140794
  Sum of centres and spreads ( 77.339480, 44.651968, 31.573717 )    28.73575451
 
     14    -0.181E+00     0.2676471527       28.7357545143      25.19  <-- CONV
        O_D=      0.1376132 O_OD=      8.3086899 O_TOT=     28.7357545 <-- SPRD
 Delta: O_D=  0.6566888E-02 O_OD= -0.1880205E+00 O_TOT= -0.1814536E+00 <-- DLTA
 ------------------------------------------------------------------------------
 Cycle:     15
  WF centre and spread    1  (  5.800466,  3.712734,  2.769442 )     1.38034937
  WF centre and spread    2  (  5.800456,  3.712739,  2.769442 )     1.38035221
  WF centre and spread    3  (  5.800461,  3.353808,  1.701964 )     1.66171010
  WF centre and spread    4  (  5.800463,  3.353804,  1.701959 )     1.66176851
  WF centre and spread    5  (  5.800456,  3.513583,  2.484329 )     2.13219029
  WF centre and spread    6  (  5.800469,  3.513581,  2.484326 )     2.13217852
  WF centre and spread    7  (  5.800459,  2.810572,  2.512777 )     1.82874588
  WF centre and spread    8  (  5.800459,  2.810562,  2.512774 )     1.82871294
  WF centre and spread    9  (  3.866986,  1.868760,  1.177274 )     1.38035173
  WF centre and spread   10  (  3.866973,  1.868765,  1.177272 )     1.38034746
  WF centre and spread   11  (  3.866970,  2.227690,  2.244752 )     1.66170809
  WF centre and spread   12  (  3.866973,  2.227688,  2.244754 )     1.66177114
  WF centre and spread   13  (  3.866958,  2.067917,  1.462388 )     2.13217116
  WF centre and spread   14  (  3.866977,  2.067913,  1.462385 )     2.13218277
  WF centre and spread   15  (  3.866974,  2.770932,  1.433941 )     1.82871998
  WF centre and spread   16  (  3.866980,  2.770921,  1.433940 )     1.82874758
  Sum of centres and spreads ( 77.339480, 44.651968, 31.573717 )    28.01200773
 
     15    -0.724E+00     0.3198619304       28.0120077338      25.26  <-- CONV
        O_D=      0.1729034 O_OD=      7.5496530 O_TOT=     28.0120077 <-- SPRD
 Delta: O_D=  0.3529017E-01 O_OD= -0.7590370E+00 O_TOT= -0.7237468E+00 <-- DLTA
 ------------------------------------------------------------------------------
 Cycle:     16
  WF centre and spread    1  (  5.800467,  3.716040,  2.771152 )     1.35212440
  WF centre and spread    2  (  5.800456,  3.716045,  2.771152 )     1.35212745
  WF centre and spread    3  (  5.800461,  3.354122,  1.699561 )     1.63184459
  WF centre and spread    4  (  5.800463,  3.354118,  1.699556 )     1.63190690
  WF centre and spread    5  (  5.800456,  3.513560,  2.484342 )     2.10899264
  WF centre and spread    6  (  5.800469,  3.513558,  2.484338 )     2.10898001
  WF centre and spread    7  (  5.800459,  2.806993,  2.513555 )     1.79905419
  WF centre and spread    8  (  5.800459,  2.806983,  2.513552 )     1.79901913
  WF centre and spread    9  (  3.866986,  1.865454,  1.175564 )     1.35212686
  WF centre and spread   10  (  3.866973,  1.865458,  1.175561 )     1.35212286
  WF centre and spread   11  (  3.866970,  2.227376,  2.247155 )     1.63184261
  WF centre and spread   12  (  3.866973,  2.227374,  2.247156 )     1.63190854
  WF centre and spread   13  (  3.866958,  2.067940,  1.462376 )     2.10897241
  WF centre and spread   14  (  3.866977,  2.067936,  1.462373 )     2.10898496
  WF centre and spread   15  (  3.866974,  2.774510,  1.433163 )     1.79902701
  WF centre and spread   16  (  3.866980,  2.774500,  1.433162 )     1.79905494
  Sum of centres and spreads ( 77.339480, 44.651968, 31.573717 )    27.56808951
 
     16    -0.444E+00     0.5757243379       27.5680895089      25.34  <-- CONV
        O_D=      0.1286538 O_OD=      7.1499843 O_TOT=     27.5680895 <-- SPRD
 Delta: O_D= -0.4424957E-01 O_OD= -0.3996687E+00 O_TOT= -0.4439182E+00 <-- DLTA
 ------------------------------------------------------------------------------
 Cycle:     17
  WF centre and spread    1  (  5.800467,  3.722389,  2.774341 )     1.34399292
  WF centre and spread    2  (  5.800456,  3.722394,  2.774341 )     1.34399563
  WF centre and spread    3  (  5.800461,  3.354749,  1.694777 )     1.61569241
  WF centre and spread    4  (  5.800463,  3.354745,  1.694772 )     1.61580979
  WF centre and spread    5  (  5.800455,  3.513640,  2.484433 )     2.10392386
  WF centre and spread    6  (  5.800470,  3.513639,  2.484429 )     2.10389744
  WF centre and spread    7  (  5.800459,  2.799911,  2.515156 )     1.78230528
  WF centre and spread    8  (  5.800459,  2.799901,  2.515153 )     1.78225367
  WF centre and spread    9  (  3.866987,  1.859104,  1.172375 )     1.34399539
  WF centre and spread   10  (  3.866973,  1.859109,  1.172372 )     1.34399064
  WF centre and spread   11  (  3.866970,  2.226749,  2.251939 )     1.61569277
  WF centre and spread   12  (  3.866973,  2.226748,  2.251940 )     1.61580621
  WF centre and spread   13  (  3.866958,  2.067859,  1.462284 )     2.10388751
  WF centre and spread   14  (  3.866977,  2.067855,  1.462281 )     2.10390935
  WF centre and spread   15  (  3.866974,  2.781593,  1.431562 )     1.78226243
  WF centre and spread   16  (  3.866980,  2.781583,  1.431560 )     1.78230133
  Sum of centres and spreads ( 77.339480, 44.651968, 31.573717 )    27.38371662
 
     17    -0.184E+00     0.2985445757       27.3837166253      25.41  <-- CONV
        O_D=      0.1252559 O_OD=      6.9690093 O_TOT=     27.3837166 <-- SPRD
 Delta: O_D= -0.3397898E-02 O_OD= -0.1809750E+00 O_TOT= -0.1843729E+00 <-- DLTA
 ------------------------------------------------------------------------------
 Cycle:     18
  WF centre and spread    1  (  5.800467,  3.735614,  2.780580 )     1.34643161
  WF centre and spread    2  (  5.800455,  3.735618,  2.780580 )     1.34643385
  WF centre and spread    3  (  5.800461,  3.356244,  1.684770 )     1.59168075
  WF centre and spread    4  (  5.800463,  3.356240,  1.684766 )     1.59190770
  WF centre and spread    5  (  5.800455,  3.513811,  2.484607 )     2.10124825
  WF centre and spread    6  (  5.800470,  3.513810,  2.484603 )     2.10119521
  WF centre and spread    7  (  5.800459,  2.784896,  2.518805 )     1.75552967
  WF centre and spread    8  (  5.800459,  2.784887,  2.518803 )     1.75544452
  WF centre and spread    9  (  3.866987,  1.845880,  1.166136 )     1.34643378
  WF centre and spread   10  (  3.866973,  1.845885,  1.166133 )     1.34642840
  WF centre and spread   11  (  3.866970,  2.225254,  2.261945 )     1.59168584
  WF centre and spread   12  (  3.866973,  2.225253,  2.261947 )     1.59189319
  WF centre and spread   13  (  3.866957,  2.067688,  1.462111 )     2.10118017
  WF centre and spread   14  (  3.866977,  2.067684,  1.462108 )     2.10122085
  WF centre and spread   15  (  3.866974,  2.796607,  1.427913 )     1.75545539
  WF centre and spread   16  (  3.866980,  2.796597,  1.427911 )     1.75551577
  Sum of centres and spreads ( 77.339480, 44.651968, 31.573717 )    27.17968495
 
     18    -0.204E+00     0.2683432455       27.1796849491      25.49  <-- CONV
        O_D=      0.1230844 O_OD=      6.7671492 O_TOT=     27.1796849 <-- SPRD
 Delta: O_D= -0.2171539E-02 O_OD= -0.2018601E+00 O_TOT= -0.2040317E+00 <-- DLTA
 ------------------------------------------------------------------------------
 Cycle:     19
  WF centre and spread    1  (  5.800468,  3.753904,  2.788269 )     1.36020844
  WF centre and spread    2  (  5.800455,  3.753908,  2.788269 )     1.36020829
  WF centre and spread    3  (  5.800461,  3.358841,  1.671154 )     1.56244868
  WF centre and spread    4  (  5.800463,  3.358837,  1.671150 )     1.56319665
  WF centre and spread    5  (  5.800454,  3.513834,  2.484682 )     2.10131181
  WF centre and spread    6  (  5.800471,  3.513833,  2.484679 )     2.10113195
  WF centre and spread    7  (  5.800459,  2.763826,  2.524649 )     1.72050847
  WF centre and spread    8  (  5.800459,  2.763817,  2.524646 )     1.72026438
  WF centre and spread    9  (  3.866989,  1.827591,  1.158447 )     1.36020954
  WF centre and spread   10  (  3.866973,  1.827594,  1.158444 )     1.36020055
  WF centre and spread   11  (  3.866970,  2.222657,  2.275562 )     1.56247418
  WF centre and spread   12  (  3.866972,  2.222655,  2.275563 )     1.56313213
  WF centre and spread   13  (  3.866955,  2.067666,  1.462035 )     2.10109211
  WF centre and spread   14  (  3.866977,  2.067661,  1.462032 )     2.10122309
  WF centre and spread   15  (  3.866974,  2.817677,  1.422069 )     1.72028458
  WF centre and spread   16  (  3.866980,  2.817668,  1.422068 )     1.72044721
  Sum of centres and spreads ( 77.339480, 44.651968, 31.573717 )    26.97834205
 
     19    -0.201E+00     0.2609668871       26.9783420548      25.56  <-- CONV
        O_D=      0.1204388 O_OD=      6.5684519 O_TOT=     26.9783421 <-- SPRD
 Delta: O_D= -0.2645589E-02 O_OD= -0.1986973E+00 O_TOT= -0.2013429E+00 <-- DLTA
 ------------------------------------------------------------------------------
 Cycle:     20
  WF centre and spread    1  (  5.800469,  3.782939,  2.797602 )     1.38801544
  WF centre and spread    2  (  5.800453,  3.782941,  2.797600 )     1.38801074
  WF centre and spread    3  (  5.800461,  3.364856,  1.650243 )     1.51405788
  WF centre and spread    4  (  5.800463,  3.364852,  1.650240 )     1.51556563
  WF centre and spread    5  (  5.800453,  3.513189,  2.484280 )     2.10622448
  WF centre and spread    6  (  5.800472,  3.513187,  2.484277 )     2.10585897
  WF centre and spread    7  (  5.800458,  2.729303,  2.536669 )     1.66012144
  WF centre and spread    8  (  5.800459,  2.729294,  2.536667 )     1.65964553
  WF centre and spread    9  (  3.866991,  1.798556,  1.149115 )     1.38801406
  WF centre and spread   10  (  3.866973,  1.798559,  1.149112 )     1.38800206
  WF centre and spread   11  (  3.866971,  2.216642,  2.296472 )     1.51411490
  WF centre and spread   12  (  3.866972,  2.216640,  2.296473 )     1.51542338
  WF centre and spread   13  (  3.866952,  2.068311,  1.462437 )     2.10578242
  WF centre and spread   14  (  3.866977,  2.068307,  1.462434 )     2.10604873
  WF centre and spread   15  (  3.866974,  2.852200,  1.410048 )     1.65967912
  WF centre and spread   16  (  3.866980,  2.852192,  1.410047 )     1.65998783
  Sum of centres and spreads ( 77.339480, 44.651968, 31.573717 )    26.67455259
 
     20    -0.304E+00     0.3124814382       26.6745525934      25.63  <-- CONV
        O_D=      0.1274417 O_OD=      6.2576595 O_TOT=     26.6745526 <-- SPRD
 Delta: O_D=  0.7002933E-02 O_OD= -0.3107924E+00 O_TOT= -0.3037895E+00 <-- DLTA
 ------------------------------------------------------------------------------
 Cycle:     21
  WF centre and spread    1  (  5.800470,  3.815347,  2.798997 )     1.44401837
  WF centre and spread    2  (  5.800451,  3.815348,  2.798995 )     1.44400707
  WF centre and spread    3  (  5.800462,  3.378479,  1.627092 )     1.44082374
  WF centre and spread    4  (  5.800463,  3.378475,  1.627090 )     1.44362102
  WF centre and spread    5  (  5.800451,  3.510823,  2.482576 )     2.10918423
  WF centre and spread    6  (  5.800475,  3.510821,  2.482573 )     2.10850417
  WF centre and spread    7  (  5.800458,  2.685487,  2.560110 )     1.56220388
  WF centre and spread    8  (  5.800459,  2.685480,  2.560108 )     1.56133387
  WF centre and spread    9  (  3.866995,  1.766149,  1.147720 )     1.44401455
  WF centre and spread   10  (  3.866972,  1.766150,  1.147717 )     1.44399716
  WF centre and spread   11  (  3.866972,  2.203019,  2.319623 )     1.44093444
  WF centre and spread   12  (  3.866972,  2.203017,  2.319624 )     1.44334150
  WF centre and spread   13  (  3.866948,  2.070677,  1.464141 )     2.10836339
  WF centre and spread   14  (  3.866978,  2.070673,  1.464138 )     2.10886882
  WF centre and spread   15  (  3.866974,  2.896015,  1.386607 )     1.56138913
  WF centre and spread   16  (  3.866980,  2.896008,  1.386606 )     1.56194228
  Sum of centres and spreads ( 77.339479, 44.651968, 31.573717 )    26.22654761
 
     21    -0.448E+00     0.3782911324       26.2265476075      25.71  <-- CONV
        O_D=      0.1153057 O_OD=      5.8217906 O_TOT=     26.2265476 <-- SPRD
 Delta: O_D= -0.1213605E-01 O_OD= -0.4358689E+00 O_TOT= -0.4480050E+00 <-- DLTA
 ------------------------------------------------------------------------------
 Cycle:     22
  WF centre and spread    1  (  5.800471,  3.816448,  2.798707 )     1.43257114
  WF centre and spread    2  (  5.800451,  3.816449,  2.798704 )     1.43256048
  WF centre and spread    3  (  5.800462,  3.378778,  1.626417 )     1.43271890
  WF centre and spread    4  (  5.800463,  3.378774,  1.626415 )     1.43533984
  WF centre and spread    5  (  5.800451,  3.511176,  2.482829 )     2.10203115
  WF centre and spread    6  (  5.800475,  3.511174,  2.482826 )     2.10139343
  WF centre and spread    7  (  5.800458,  2.683960,  2.561108 )     1.55264268
  WF centre and spread    8  (  5.800459,  2.683954,  2.561106 )     1.55182698
  WF centre and spread    9  (  3.866995,  1.765048,  1.148011 )     1.43256791
  WF centre and spread   10  (  3.866972,  1.765049,  1.148007 )     1.43255087
  WF centre and spread   11  (  3.866971,  2.202720,  2.320298 )     1.43282279
  WF centre and spread   12  (  3.866972,  2.202718,  2.320299 )     1.43507686
  WF centre and spread   13  (  3.866947,  2.070324,  1.463888 )     2.10126072
  WF centre and spread   14  (  3.866978,  2.070320,  1.463885 )     2.10173733
  WF centre and spread   15  (  3.866974,  2.897541,  1.385609 )     1.55187810
  WF centre and spread   16  (  3.866980,  2.897535,  1.385608 )     1.55239666
  Sum of centres and spreads ( 77.339480, 44.651968, 31.573717 )    26.08137584
 
     22    -0.145E+00     0.3344346201       26.0813758371      25.78  <-- CONV
        O_D=      0.1030844 O_OD=      5.6888401 O_TOT=     26.0813758 <-- SPRD
 Delta: O_D= -0.1222130E-01 O_OD= -0.1329505E+00 O_TOT= -0.1451718E+00 <-- DLTA
 ------------------------------------------------------------------------------
 Cycle:     23
  WF centre and spread    1  (  5.800471,  3.819344,  2.797716 )     1.42061589
  WF centre and spread    2  (  5.800451,  3.819345,  2.797713 )     1.42060394
  WF centre and spread    3  (  5.800462,  3.379598,  1.624871 )     1.42714838
  WF centre and spread    4  (  5.800463,  3.379595,  1.624868 )     1.42984903
  WF centre and spread    5  (  5.800450,  3.511997,  2.483397 )     2.09731334
  WF centre and spread    6  (  5.800475,  3.511995,  2.483394 )     2.09665497
  WF centre and spread    7  (  5.800458,  2.680018,  2.563815 )     1.54244935
  WF centre and spread    8  (  5.800459,  2.680013,  2.563813 )     1.54160988
  WF centre and spread    9  (  3.866996,  1.762152,  1.149002 )     1.42061250
  WF centre and spread   10  (  3.866972,  1.762152,  1.148998 )     1.42059451
  WF centre and spread   11  (  3.866972,  2.201899,  2.321844 )     1.42725644
  WF centre and spread   12  (  3.866972,  2.201898,  2.321846 )     1.42957442
  WF centre and spread   13  (  3.866946,  2.069503,  1.463320 )     2.09651688
  WF centre and spread   14  (  3.866978,  2.069499,  1.463317 )     2.09701604
  WF centre and spread   15  (  3.866974,  2.901483,  1.382902 )     1.54165954
  WF centre and spread   16  (  3.866980,  2.901477,  1.382901 )     1.54219200
  Sum of centres and spreads ( 77.339479, 44.651968, 31.573717 )    25.95166712
 
     23    -0.130E+00     0.2265928691       25.9516671225      25.85  <-- CONV
        O_D=      0.1063781 O_OD=      5.5558376 O_TOT=     25.9516671 <-- SPRD
 Delta: O_D=  0.3293756E-02 O_OD= -0.1330025E+00 O_TOT= -0.1297087E+00 <-- DLTA
 ------------------------------------------------------------------------------
 Cycle:     24
  WF centre and spread    1  (  5.800471,  3.822628,  2.796233 )     1.41455348
  WF centre and spread    2  (  5.800450,  3.822629,  2.796230 )     1.41455569
  WF centre and spread    3  (  5.800462,  3.380617,  1.623284 )     1.42379902
  WF centre and spread    4  (  5.800463,  3.380613,  1.623282 )     1.42466684
  WF centre and spread    5  (  5.800450,  3.512721,  2.483887 )     2.09365651
  WF centre and spread    6  (  5.800476,  3.512720,  2.483884 )     2.09344738
  WF centre and spread    7  (  5.800459,  2.675578,  2.567087 )     1.53228181
  WF centre and spread    8  (  5.800459,  2.675572,  2.567084 )     1.53200399
  WF centre and spread    9  (  3.866997,  1.758868,  1.150485 )     1.41455585
  WF centre and spread   10  (  3.866972,  1.758869,  1.150482 )     1.41454677
  WF centre and spread   11  (  3.866972,  2.200881,  2.323430 )     1.42383357
  WF centre and spread   12  (  3.866972,  2.200879,  2.323432 )     1.42457856
  WF centre and spread   13  (  3.866945,  2.068779,  1.462830 )     2.09339923
  WF centre and spread   14  (  3.866979,  2.068775,  1.462827 )     2.09356583
  WF centre and spread   15  (  3.866974,  2.905923,  1.379631 )     1.53202155
  WF centre and spread   16  (  3.866980,  2.905918,  1.379629 )     1.53220060
  Sum of centres and spreads ( 77.339479, 44.651968, 31.573717 )    25.85766667
 
     24    -0.940E-01     0.2177922977       25.8576666711      25.93  <-- CONV
        O_D=      0.0990341 O_OD=      5.4691812 O_TOT=     25.8576667 <-- SPRD
 Delta: O_D= -0.7344081E-02 O_OD= -0.8665637E-01 O_TOT= -0.9400045E-01 <-- DLTA
 ------------------------------------------------------------------------------
 Cycle:     25
  WF centre and spread    1  (  5.800472,  3.826947,  2.793738 )     1.41235947
  WF centre and spread    2  (  5.800449,  3.826948,  2.793735 )     1.41236792
  WF centre and spread    3  (  5.800462,  3.382089,  1.621252 )     1.41975768
  WF centre and spread    4  (  5.800463,  3.382085,  1.621250 )     1.42015297
  WF centre and spread    5  (  5.800449,  3.513356,  2.484315 )     2.09156176
  WF centre and spread    6  (  5.800477,  3.513354,  2.484312 )     2.09146951
  WF centre and spread    7  (  5.800459,  2.669703,  2.571774 )     1.51961405
  WF centre and spread    8  (  5.800459,  2.669697,  2.571771 )     1.51948166
  WF centre and spread    9  (  3.866999,  1.754549,  1.152980 )     1.41236253
  WF centre and spread   10  (  3.866972,  1.754549,  1.152977 )     1.41235950
  WF centre and spread   11  (  3.866972,  2.199409,  2.325463 )     1.41977365
  WF centre and spread   12  (  3.866972,  2.199407,  2.325464 )     1.42011266
  WF centre and spread   13  (  3.866943,  2.068144,  1.462402 )     2.09144478
  WF centre and spread   14  (  3.866979,  2.068140,  1.462399 )     2.09152704
  WF centre and spread   15  (  3.866974,  2.911798,  1.374944 )     1.51948933
  WF centre and spread   16  (  3.866980,  2.911793,  1.374942 )     1.51957795
  Sum of centres and spreads ( 77.339479, 44.651968, 31.573717 )    25.77341247
 
     25    -0.843E-01     0.1755640367       25.7734124690      26.00  <-- CONV
        O_D=      0.0974369 O_OD=      5.3865242 O_TOT=     25.7734125 <-- SPRD
 Delta: O_D= -0.1597153E-02 O_OD= -0.8265705E-01 O_TOT= -0.8425420E-01 <-- DLTA
 ------------------------------------------------------------------------------
 Cycle:     26
  WF centre and spread    1  (  5.800473,  3.830609,  2.790950 )     1.41380074
  WF centre and spread    2  (  5.800449,  3.830608,  2.790948 )     1.41381290
  WF centre and spread    3  (  5.800462,  3.383445,  1.619726 )     1.41620256
  WF centre and spread    4  (  5.800463,  3.383441,  1.619724 )     1.41633776
  WF centre and spread    5  (  5.800448,  3.513627,  2.484473 )     2.09100163
  WF centre and spread    6  (  5.800478,  3.513625,  2.484470 )     2.09097419
  WF centre and spread    7  (  5.800459,  2.664699,  2.576169 )     1.50802203
  WF centre and spread    8  (  5.800459,  2.664694,  2.576166 )     1.50796989
  WF centre and spread    9  (  3.867000,  1.750888,  1.155767 )     1.41380384
  WF centre and spread   10  (  3.866971,  1.750888,  1.155765 )     1.41380500
  WF centre and spread   11  (  3.866972,  2.198053,  2.326989 )     1.41620804
  WF centre and spread   12  (  3.866972,  2.198051,  2.326990 )     1.41632551
  WF centre and spread   13  (  3.866942,  2.067873,  1.462244 )     2.09096325
  WF centre and spread   14  (  3.866979,  2.067869,  1.462241 )     2.09099483
  WF centre and spread   15  (  3.866974,  2.916802,  1.370549 )     1.50797341
  WF centre and spread   16  (  3.866980,  2.916797,  1.370547 )     1.50801263
  Sum of centres and spreads ( 77.339479, 44.651968, 31.573717 )    25.71620821
 
     26    -0.572E-01     0.1630722922       25.7162082073      26.08  <-- CONV
[...]
  WF centre and spread    3  (  5.800494,  3.376504,  1.609590 )     1.38416553
  WF centre and spread    4  (  5.800426,  3.376500,  1.609589 )     1.38416168
  WF centre and spread    5  (  5.799967,  3.513565,  2.484461 )     2.09090222
  WF centre and spread    6  (  5.801049,  3.513563,  2.484458 )     2.09090688
  WF centre and spread    7  (  5.800489,  2.641493,  2.643465 )     1.38448375
  WF centre and spread    8  (  5.800421,  2.641490,  2.643459 )     1.38448047
  WF centre and spread    9  (  3.867954,  1.719017,  1.213179 )     1.49552039
  WF centre and spread   10  (  3.866862,  1.719013,  1.213179 )     1.49551440
  WF centre and spread   11  (  3.867045,  2.204993,  2.337124 )     1.38416418
  WF centre and spread   12  (  3.866963,  2.204992,  2.337125 )     1.38416558
  WF centre and spread   13  (  3.865830,  2.067935,  1.462256 )     2.09090159
  WF centre and spread   14  (  3.867107,  2.067931,  1.462253 )     2.09090396
  WF centre and spread   15  (  3.867047,  2.940006,  1.303255 )     1.38448300
  WF centre and spread   16  (  3.866972,  2.940003,  1.303250 )     1.38448632
  Sum of centres and spreads ( 77.339469, 44.651968, 31.573717 )    25.42027703
 
     91    -0.165E-04     0.0023484044       25.4202770357      30.77  <-- CONV
        O_D=      0.0859204 O_OD=      5.0449052 O_TOT=     25.4202770 <-- SPRD
 Delta: O_D= -0.1722994E-05 O_OD= -0.1476336E-04 O_TOT= -0.1648636E-04 <-- DLTA
 ------------------------------------------------------------------------------
 Cycle:     92
  WF centre and spread    1  (  5.800940,  3.862607,  2.733358 )     1.49553794
  WF centre and spread    2  (  5.799895,  3.862605,  2.733357 )     1.49554267
  WF centre and spread    3  (  5.800498,  3.376299,  1.609566 )     1.38416667
  WF centre and spread    4  (  5.800421,  3.376294,  1.609565 )     1.38416288
  WF centre and spread    5  (  5.799905,  3.513563,  2.484460 )     2.09091576
  WF centre and spread    6  (  5.801123,  3.513561,  2.484457 )     2.09092038
  WF centre and spread    7  (  5.800493,  2.641574,  2.643665 )     1.38444228
  WF centre and spread    8  (  5.800416,  2.641572,  2.643659 )     1.38443898
  WF centre and spread    9  (  3.868077,  1.718892,  1.213358 )     1.49554209
  WF centre and spread   10  (  3.866848,  1.718888,  1.213359 )     1.49553618
  WF centre and spread   11  (  3.867054,  2.205199,  2.337148 )     1.38416536
  WF centre and spread   12  (  3.866961,  2.205198,  2.337149 )     1.38416675
  WF centre and spread   13  (  3.865686,  2.067937,  1.462257 )     2.09091476
  WF centre and spread   14  (  3.867123,  2.067933,  1.462254 )     2.09091759
  WF centre and spread   15  (  3.867056,  2.939925,  1.303055 )     1.38444152
  WF centre and spread   16  (  3.866971,  2.939922,  1.303050 )     1.38444481
  Sum of centres and spreads ( 77.339468, 44.651968, 31.573717 )    25.42025662
 
     92    -0.204E-04     0.0027408970       25.4202566196      30.84  <-- CONV
        O_D=      0.0859177 O_OD=      5.0448876 O_TOT=     25.4202566 <-- SPRD
 Delta: O_D= -0.2749596E-05 O_OD= -0.1766645E-04 O_TOT= -0.2041605E-04 <-- DLTA
 ------------------------------------------------------------------------------
 Cycle:     93
  WF centre and spread    1  (  5.800993,  3.862721,  2.733191 )     1.49555756
  WF centre and spread    2  (  5.799832,  3.862719,  2.733191 )     1.49556228
  WF centre and spread    3  (  5.800502,  3.376110,  1.609545 )     1.38417244
  WF centre and spread    4  (  5.800416,  3.376106,  1.609544 )     1.38416870
  WF centre and spread    5  (  5.799843,  3.513562,  2.484460 )     2.09091943
  WF centre and spread    6  (  5.801196,  3.513561,  2.484457 )     2.09092401
  WF centre and spread    7  (  5.800497,  2.641651,  2.643849 )     1.38440923
  WF centre and spread    8  (  5.800412,  2.641648,  2.643844 )     1.38440591
  WF centre and spread    9  (  3.868199,  1.718778,  1.213525 )     1.49556164
  WF centre and spread   10  (  3.866834,  1.718774,  1.213525 )     1.49555582
  WF centre and spread   11  (  3.867063,  2.205387,  2.337169 )     1.38417117
  WF centre and spread   12  (  3.866960,  2.205386,  2.337170 )     1.38417255
  WF centre and spread   13  (  3.865544,  2.067937,  1.462257 )     2.09091803
  WF centre and spread   14  (  3.867139,  2.067934,  1.462254 )     2.09092136
  WF centre and spread   15  (  3.867065,  2.939848,  1.302870 )     1.38440846
  WF centre and spread   16  (  3.866970,  2.939846,  1.302866 )     1.38441173
  Sum of centres and spreads ( 77.339466, 44.651968, 31.573717 )    25.42024033
 
     93    -0.163E-04     0.0026192222       25.4202403320      30.91  <-- CONV
        O_D=      0.0859169 O_OD=      5.0448720 O_TOT=     25.4202403 <-- SPRD
 Delta: O_D= -0.7633946E-06 O_OD= -0.1552423E-04 O_TOT= -0.1628762E-04 <-- DLTA
 ------------------------------------------------------------------------------
 Cycle:     94
  WF centre and spread    1  (  5.800998,  3.862727,  2.733182 )     1.49555781
  WF centre and spread    2  (  5.799826,  3.862725,  2.733181 )     1.49556254
  WF centre and spread    3  (  5.800502,  3.376100,  1.609545 )     1.38417372
  WF centre and spread    4  (  5.800416,  3.376096,  1.609543 )     1.38416985
  WF centre and spread    5  (  5.799837,  3.513563,  2.484460 )     2.09091493
  WF centre and spread    6  (  5.801204,  3.513561,  2.484457 )     2.09091953
  WF centre and spread    7  (  5.800497,  2.641656,  2.643860 )     1.38440876
  WF centre and spread    8  (  5.800411,  2.641654,  2.643855 )     1.38440550
  WF centre and spread    9  (  3.868212,  1.718772,  1.213534 )     1.49556188
  WF centre and spread   10  (  3.866832,  1.718768,  1.213535 )     1.49555608
  WF centre and spread   11  (  3.867064,  2.205397,  2.337170 )     1.38417243
  WF centre and spread   12  (  3.866960,  2.205396,  2.337171 )     1.38417374
  WF centre and spread   13  (  3.865529,  2.067937,  1.462257 )     2.09091350
  WF centre and spread   14  (  3.867141,  2.067933,  1.462254 )     2.09091684
  WF centre and spread   15  (  3.867066,  2.939843,  1.302860 )     1.38440809
  WF centre and spread   16  (  3.866970,  2.939840,  1.302855 )     1.38441133
  Sum of centres and spreads ( 77.339466, 44.651968, 31.573717 )    25.42022653
 
     94    -0.138E-04     0.0034095273       25.4202265340      30.98  <-- CONV
        O_D=      0.0859162 O_OD=      5.0448590 O_TOT=     25.4202265 <-- SPRD
 Delta: O_D= -0.7513778E-06 O_OD= -0.1304666E-04 O_TOT= -0.1379804E-04 <-- DLTA
 ------------------------------------------------------------------------------
 Cycle:     95
  WF centre and spread    1  (  5.801016,  3.862744,  2.733152 )     1.49555973
  WF centre and spread    2  (  5.799805,  3.862742,  2.733151 )     1.49556448
  WF centre and spread    3  (  5.800504,  3.376068,  1.609543 )     1.38418003
  WF centre and spread    4  (  5.800414,  3.376064,  1.609541 )     1.38417607
  WF centre and spread    5  (  5.799816,  3.513564,  2.484462 )     2.09090292
  WF centre and spread    6  (  5.801228,  3.513562,  2.484458 )     2.09090753
  WF centre and spread    7  (  5.800499,  2.641672,  2.643892 )     1.38440925
  WF centre and spread    8  (  5.800410,  2.641670,  2.643887 )     1.38440604
  WF centre and spread    9  (  3.868252,  1.718754,  1.213564 )     1.49556378
  WF centre and spread   10  (  3.866828,  1.718750,  1.213565 )     1.49555802
  WF centre and spread   11  (  3.867067,  2.205429,  2.337172 )     1.38417873
  WF centre and spread   12  (  3.866960,  2.205428,  2.337173 )     1.38417999
  WF centre and spread   13  (  3.865482,  2.067935,  1.462255 )     2.09090136
  WF centre and spread   14  (  3.867147,  2.067932,  1.462253 )     2.09090485
  WF centre and spread   15  (  3.867069,  2.939827,  1.302827 )     1.38440865
  WF centre and spread   16  (  3.866970,  2.939824,  1.302823 )     1.38441186
  Sum of centres and spreads ( 77.339466, 44.651968, 31.573717 )    25.42021328
 
     95    -0.132E-04     0.0022512634       25.4202132849      31.05  <-- CONV
        O_D=      0.0859168 O_OD=      5.0448451 O_TOT=     25.4202133 <-- SPRD
 Delta: O_D=  0.6408942E-06 O_OD= -0.1388999E-04 O_TOT= -0.1324910E-04 <-- DLTA
 ------------------------------------------------------------------------------
 Cycle:     96
  WF centre and spread    1  (  5.801037,  3.862766,  2.733115 )     1.49556159
  WF centre and spread    2  (  5.799779,  3.862764,  2.733115 )     1.49556634
  WF centre and spread    3  (  5.800505,  3.376029,  1.609540 )     1.38418840
  WF centre and spread    4  (  5.800412,  3.376025,  1.609539 )     1.38418435
  WF centre and spread    5  (  5.799791,  3.513565,  2.484463 )     2.09088987
  WF centre and spread    6  (  5.801258,  3.513564,  2.484460 )     2.09089448
  WF centre and spread    7  (  5.800500,  2.641691,  2.643931 )     1.38440989
  WF centre and spread    8  (  5.800408,  2.641688,  2.643926 )     1.38440673
  WF centre and spread    9  (  3.868302,  1.718733,  1.213601 )     1.49556561
  WF centre and spread   10  (  3.866822,  1.718729,  1.213601 )     1.49555989
  WF centre and spread   11  (  3.867071,  2.205468,  2.337174 )     1.38418711
  WF centre and spread   12  (  3.866960,  2.205467,  2.337175 )     1.38418831
  WF centre and spread   13  (  3.865424,  2.067934,  1.462254 )     2.09088814
  WF centre and spread   14  (  3.867153,  2.067931,  1.462251 )     2.09089182
  WF centre and spread   15  (  3.867073,  2.939808,  1.302788 )     1.38440936
  WF centre and spread   16  (  3.866969,  2.939806,  1.302784 )     1.38441255
  Sum of centres and spreads ( 77.339465, 44.651968, 31.573717 )    25.42020444
 
     96    -0.884E-05     0.0020775411       25.4202044428      31.12  <-- CONV
        O_D=      0.0859173 O_OD=      5.0448358 O_TOT=     25.4202044 <-- SPRD
 Delta: O_D=  0.4815254E-06 O_OD= -0.9323590E-05 O_TOT= -0.8842065E-05 <-- DLTA
 ------------------------------------------------------------------------------
 Cycle:     97
  WF centre and spread    1  (  5.801069,  3.862797,  2.733065 )     1.49556357
  WF centre and spread    2  (  5.799742,  3.862795,  2.733065 )     1.49556832
  WF centre and spread    3  (  5.800508,  3.375974,  1.609536 )     1.38419911
  WF centre and spread    4  (  5.800410,  3.375970,  1.609534 )     1.38419504
  WF centre and spread    5  (  5.799754,  3.513566,  2.484464 )     2.09087599
  WF centre and spread    6  (  5.801301,  3.513565,  2.484461 )     2.09088058
  WF centre and spread    7  (  5.800503,  2.641716,  2.643986 )     1.38440931
  WF centre and spread    8  (  5.800405,  2.641713,  2.643980 )     1.38440616
  WF centre and spread    9  (  3.868375,  1.718702,  1.213651 )     1.49556753
  WF centre and spread   10  (  3.866814,  1.718697,  1.213651 )     1.49556188
  WF centre and spread   11  (  3.867076,  2.205524,  2.337179 )     1.38419783
  WF centre and spread   12  (  3.866959,  2.205522,  2.337180 )     1.38419900
  WF centre and spread   13  (  3.865339,  2.067933,  1.462253 )     2.09087399
  WF centre and spread   14  (  3.867163,  2.067929,  1.462250 )     2.09087800
  WF centre and spread   15  (  3.867078,  2.939783,  1.302734 )     1.38440882
  WF centre and spread   16  (  3.866969,  2.939780,  1.302729 )     1.38441197
  Sum of centres and spreads ( 77.339464, 44.651968, 31.573717 )    25.42019710
 
     97    -0.734E-05     0.0016699243       25.4201970986      31.19  <-- CONV
        O_D=      0.0859188 O_OD=      5.0448270 O_TOT=     25.4201971 <-- SPRD
 Delta: O_D=  0.1466871E-05 O_OD= -0.8811072E-05 O_TOT= -0.7344200E-05 <-- DLTA
 ------------------------------------------------------------------------------
 Cycle:     98
  WF centre and spread    1  (  5.801106,  3.862833,  2.733009 )     1.49556554
  WF centre and spread    2  (  5.799698,  3.862831,  2.733009 )     1.49557028
  WF centre and spread    3  (  5.800510,  3.375911,  1.609530 )     1.38420835
  WF centre and spread    4  (  5.800406,  3.375907,  1.609529 )     1.38420428
  WF centre and spread    5  (  5.799711,  3.513567,  2.484465 )     2.09086687
  WF centre and spread    6  (  5.801353,  3.513566,  2.484462 )     2.09087143
  WF centre and spread    7  (  5.800505,  2.641744,  2.644046 )     1.38440586
  WF centre and spread    8  (  5.800401,  2.641741,  2.644041 )     1.38440272
  WF centre and spread    9  (  3.868461,  1.718666,  1.213707 )     1.49556943
  WF centre and spread   10  (  3.866804,  1.718661,  1.213707 )     1.49556387
  WF centre and spread   11  (  3.867083,  2.205586,  2.337184 )     1.38420710
  WF centre and spread   12  (  3.866958,  2.205585,  2.337185 )     1.38420823
  WF centre and spread   13  (  3.865239,  2.067932,  1.462252 )     2.09086452
  WF centre and spread   14  (  3.867174,  2.067929,  1.462249 )     2.09086894
  WF centre and spread   15  (  3.867085,  2.939755,  1.302673 )     1.38440540
  WF centre and spread   16  (  3.866968,  2.939753,  1.302669 )     1.38440852
  Sum of centres and spreads ( 77.339463, 44.651968, 31.573717 )    25.42019133
 
     98    -0.577E-05     0.0015701154       25.4201913298      31.26  <-- CONV
        O_D=      0.0859200 O_OD=      5.0448200 O_TOT=     25.4201913 <-- SPRD
 Delta: O_D=  0.1204040E-05 O_OD= -0.6972827E-05 O_TOT= -0.5768787E-05 <-- DLTA
 ------------------------------------------------------------------------------
 Cycle:     99
  WF centre and spread    1  (  5.801154,  3.862878,  2.732942 )     1.49556887
  WF centre and spread    2  (  5.799641,  3.862876,  2.732942 )     1.49557361
  WF centre and spread    3  (  5.800514,  3.375835,  1.609523 )     1.38421556
  WF centre and spread    4  (  5.800402,  3.375831,  1.609521 )     1.38421149
  WF centre and spread    5  (  5.799655,  3.513568,  2.484465 )     2.09086266
  WF centre and spread    6  (  5.801419,  3.513566,  2.484462 )     2.09086718
  WF centre and spread    7  (  5.800509,  2.641776,  2.644119 )     1.38439837
  WF centre and spread    8  (  5.800397,  2.641773,  2.644114 )     1.38439524
  WF centre and spread    9  (  3.868571,  1.718621,  1.213774 )     1.49557266
  WF centre and spread   10  (  3.866791,  1.718617,  1.213774 )     1.49556722
  WF centre and spread   11  (  3.867091,  2.205663,  2.337192 )     1.38421435
  WF centre and spread   12  (  3.866957,  2.205662,  2.337193 )     1.38421543
  WF centre and spread   13  (  3.865110,  2.067931,  1.462251 )     2.09085984
  WF centre and spread   14  (  3.867189,  2.067928,  1.462249 )     2.09086485
  WF centre and spread   15  (  3.867093,  2.939723,  1.302600 )     1.38439795
  WF centre and spread   16  (  3.866967,  2.939721,  1.302596 )     1.38440103
  Sum of centres and spreads ( 77.339462, 44.651968, 31.573717 )    25.42018631
 
     99    -0.502E-05     0.0014240630       25.4201863088      31.33  <-- CONV
        O_D=      0.0859207 O_OD=      5.0448143 O_TOT=     25.4201863 <-- SPRD
 Delta: O_D=  0.7249688E-06 O_OD= -0.5745959E-05 O_TOT= -0.5020990E-05 <-- DLTA
 ------------------------------------------------------------------------------
 Cycle:    100
  WF centre and spread    1  (  5.801162,  3.862884,  2.732934 )     1.49556985
  WF centre and spread    2  (  5.799631,  3.862882,  2.732934 )     1.49557459
  WF centre and spread    3  (  5.800515,  3.375825,  1.609522 )     1.38421407
  WF centre and spread    4  (  5.800401,  3.375821,  1.609520 )     1.38421000
  WF centre and spread    5  (  5.799646,  3.513568,  2.484465 )     2.09086488
  WF centre and spread    6  (  5.801430,  3.513566,  2.484462 )     2.09086939
  WF centre and spread    7  (  5.800510,  2.641780,  2.644128 )     1.38439551
  WF centre and spread    8  (  5.800396,  2.641777,  2.644123 )     1.38439238
  WF centre and spread    9  (  3.868590,  1.718615,  1.213782 )     1.49557362
  WF centre and spread   10  (  3.866789,  1.718611,  1.213782 )     1.49556821
  WF centre and spread   11  (  3.867093,  2.205673,  2.337193 )     1.38421286
  WF centre and spread   12  (  3.866957,  2.205671,  2.337194 )     1.38421394
  WF centre and spread   13  (  3.865089,  2.067932,  1.462252 )     2.09086197
  WF centre and spread   14  (  3.867192,  2.067928,  1.462249 )     2.09086708
  WF centre and spread   15  (  3.867095,  2.939719,  1.302592 )     1.38439510
  WF centre and spread   16  (  3.866967,  2.939717,  1.302587 )     1.38439817
  Sum of centres and spreads ( 77.339462, 44.651968, 31.573717 )    25.42018160
 
    100    -0.470E-05     0.0018808184       25.4201816061      31.40  <-- CONV
        O_D=      0.0859198 O_OD=      5.0448105 O_TOT=     25.4201816 <-- SPRD
 Delta: O_D= -0.9093869E-06 O_OD= -0.3793282E-05 O_TOT= -0.4702669E-05 <-- DLTA
 ------------------------------------------------------------------------------

 Writing checkpoint file aiida.chk... done

 Final State
  WF centre and spread    1  (  5.801162,  3.862884,  2.732934 )     1.49556985
  WF centre and spread    2  (  5.799631,  3.862882,  2.732934 )     1.49557459
  WF centre and spread    3  (  5.800515,  3.375825,  1.609522 )     1.38421407
  WF centre and spread    4  (  5.800401,  3.375821,  1.609520 )     1.38421000
  WF centre and spread    5  (  5.799646,  3.513568,  2.484465 )     2.09086488
  WF centre and spread    6  (  5.801430,  3.513566,  2.484462 )     2.09086939
  WF centre and spread    7  (  5.800510,  2.641780,  2.644128 )     1.38439551
  WF centre and spread    8  (  5.800396,  2.641777,  2.644123 )     1.38439238
  WF centre and spread    9  (  3.868590,  1.718615,  1.213782 )     1.49557362
  WF centre and spread   10  (  3.866789,  1.718611,  1.213782 )     1.49556821
  WF centre and spread   11  (  3.867093,  2.205673,  2.337193 )     1.38421286
  WF centre and spread   12  (  3.866957,  2.205671,  2.337194 )     1.38421394
  WF centre and spread   13  (  3.865089,  2.067932,  1.462252 )     2.09086197
  WF centre and spread   14  (  3.867192,  2.067928,  1.462249 )     2.09086708
  WF centre and spread   15  (  3.867095,  2.939719,  1.302592 )     1.38439510
  WF centre and spread   16  (  3.866967,  2.939717,  1.302587 )     1.38439817
  Sum of centres and spreads ( 77.339462, 44.651968, 31.573717 )    25.42018160
 
         Spreads (Ang^2)       Omega I      =    20.289451373
        ================       Omega D      =     0.085919772
                               Omega OD     =     5.044810461
    Final Spread (Ang^2)       Omega Total  =    25.420181606
 ------------------------------------------------------------------------------
 Time for wannierise            7.253 (sec)

 Writing checkpoint file aiida.chk... done

 *---------------------------------------------------------------------------*
 |                               PLOTTING                                    |
 *---------------------------------------------------------------------------*
 
 Time for plotting             17.654 (sec)
 Total Execution Time          51.791 (sec)

 *===========================================================================*
 |                             TIMING INFORMATION                            |
 *===========================================================================*
 |    Tag                                                Ncalls      Time (s)|
 |---------------------------------------------------------------------------|
 |kmesh: get                                        :         1         0.155|
 |overlap: allocate                                 :         1         0.000|
 |overlap: read                                     :         1         2.566|
 |dis: main                                         :         1        24.089|
 |wann: main                                        :         1         7.253|
 |plot: main                                        :         1        17.654|
 *---------------------------------------------------------------------------*
 
 All done: wannier90 exiting
